 running on   36 total cores
 distrk:  each k-point on   36 cores,    1 groups
 distr:  one band on    9 cores,    4 groups
 using from now: INCAR     
 vasp.5.4.4.18Apr17-6-g9f103f2a35 (build Dec 09 2019 14:45:46) complex with cons
 t
 POSCAR found type information on POSCAR  O  Ce Ag H 
 POSCAR found :  4 types and      83 ions
 scaLAPACK will be used
 LDA part: xc-table for Pade appr. of Perdew
 POSCAR, INCAR and KPOINTS ok, starting setup
 reached
 FFT: planning ...
 WAVECAR not read
 augmentation electrons   649.123168590345     
 soft         electrons  0.000000000000000E+000
 augmentation electrons   649.123168590345     
 soft         electrons  0.000000000000000E+000
 augmentation electrons   649.123168590345     
 soft         electrons  0.000000000000000E+000
 augmentation electrons   649.123168590345     
 soft         electrons  0.000000000000000E+000
 augmentation electrons   649.123168590345     
 soft         electrons  0.000000000000000E+000
 augmentation electrons   649.123168590345     
 soft         electrons  0.000000000000000E+000
 augmentation electrons   649.123168590345     
 soft         electrons  0.000000000000000E+000
 augmentation electrons   649.123168590345     
 soft         electrons  0.000000000000000E+000
 augmentation electrons   649.123168590345     
 soft         electrons  0.000000000000000E+000
 augmentation electrons   649.123168590345     
 soft         electrons  0.000000000000000E+000
 augmentation electrons   649.123168590345     
 soft         electrons  0.000000000000000E+000
 augmentation electrons   649.123168590345     
 soft         electrons  0.000000000000000E+000
 augmentation electrons   649.123168590345     
 soft         electrons  0.000000000000000E+000
 augmentation electrons   649.123168590345     
 soft         electrons  0.000000000000000E+000
 augmentation electrons   649.123168590345     
 soft         electrons  0.000000000000000E+000
 augmentation electrons   649.123168590345     
 soft         electrons  0.000000000000000E+000
 augmentation electrons   649.123168590345     
 soft         electrons  0.000000000000000E+000
 augmentation electrons   649.123168590345     
 soft         electrons  0.000000000000000E+000
 augmentation electrons   649.123168590345     
 soft         electrons  0.000000000000000E+000
 augmentation electrons   649.123168590345     
 soft         electrons  0.000000000000000E+000
 augmentation electrons   649.123168590345     
 soft         electrons  0.000000000000000E+000
 augmentation electrons   649.123168590345     
 soft         electrons  0.000000000000000E+000
 augmentation electrons   649.123168590345     
 soft         electrons  0.000000000000000E+000
 augmentation electrons   649.123168590345     
 soft         electrons  0.000000000000000E+000
 augmentation electrons   649.123168590345     
 soft         electrons  0.000000000000000E+000
 augmentation electrons   649.123168590345     
 soft         electrons  0.000000000000000E+000
 augmentation electrons   649.123168590345     
 soft         electrons  0.000000000000000E+000
 augmentation electrons   649.123168590345     
 soft         electrons  0.000000000000000E+000
 augmentation electrons   649.123168590345     
 soft         electrons  0.000000000000000E+000
 augmentation electrons   649.123168590345     
 soft         electrons  0.000000000000000E+000
 augmentation electrons   649.123168590345     
 soft         electrons  0.000000000000000E+000
 augmentation electrons   649.123168590345     
 soft         electrons  0.000000000000000E+000
 augmentation electrons   649.123168590345     
 soft         electrons  0.000000000000000E+000
 augmentation electrons   649.123168590345     
 soft         electrons  0.000000000000000E+000
 augmentation electrons   649.123168590345     
 soft         electrons  0.000000000000000E+000
 augmentation electrons   649.123168590345     
 soft         electrons  0.000000000000000E+000
 total        electrons   649.123168590345     
 total        electrons   649.123168590345     
 total        electrons   649.123168590345     
 total        electrons   649.123168590345     
 total        electrons   649.123168590345     
 total        electrons   649.123168590345     
 total        electrons   649.123168590345     
 total        electrons   649.123168590345     
 total        electrons   649.123168590345     
 total        electrons   649.123168590345     
 total        electrons   649.123168590345     
 total        electrons   649.123168590345     
 total        electrons   649.123168590345     
 total        electrons   649.123168590345     
 total        electrons   649.123168590345     
 total        electrons   649.123168590345     
 total        electrons   649.123168590345     
 total        electrons   649.123168590345     
 total        electrons   649.123168590345     
 total        electrons   649.123168590345     
 total        electrons   649.123168590345     
 total        electrons   649.123168590345     
 total        electrons   649.123168590345     
 total        electrons   649.123168590345     
 total        electrons   649.123168590345     
 total        electrons   649.123168590345     
 total        electrons   649.123168590345     
 total        electrons   649.123168590345     
 total        electrons   649.123168590345     
 total        electrons   649.123168590345     
 total        electrons   649.123168590345     
 total        electrons   649.123168590345     
 total        electrons   649.123168590345     
 total        electrons   649.123168590345     
 total        electrons   649.123168590345     
 total        electrons   649.123168590345     
 augmentation electrons  1.798283036147474E-002
 soft         electrons  0.000000000000000E+000
 augmentation electrons  1.798283036147474E-002
 soft         electrons  0.000000000000000E+000
 augmentation electrons  1.798283036147474E-002
 soft         electrons  0.000000000000000E+000
 augmentation electrons  1.798283036147474E-002
 soft         electrons  0.000000000000000E+000
 augmentation electrons  1.798283036147474E-002
 soft         electrons  0.000000000000000E+000
 augmentation electrons  1.798283036147474E-002
 soft         electrons  0.000000000000000E+000
 augmentation electrons  1.798283036147474E-002
 soft         electrons  0.000000000000000E+000
 augmentation electrons  1.798283036147474E-002
 soft         electrons  0.000000000000000E+000
 augmentation electrons  1.798283036147474E-002
 soft         electrons  0.000000000000000E+000
 augmentation electrons  1.798283036147474E-002
 soft         electrons  0.000000000000000E+000
 augmentation electrons  1.798283036147474E-002
 soft         electrons  0.000000000000000E+000
 augmentation electrons  1.798283036147474E-002
 soft         electrons  0.000000000000000E+000
 augmentation electrons  1.798283036147474E-002
 soft         electrons  0.000000000000000E+000
 augmentation electrons  1.798283036147474E-002
 soft         electrons  0.000000000000000E+000
 augmentation electrons  1.798283036147474E-002
 soft         electrons  0.000000000000000E+000
 augmentation electrons  1.798283036147474E-002
 soft         electrons  0.000000000000000E+000
 augmentation electrons  1.798283036147474E-002
 soft         electrons  0.000000000000000E+000
 augmentation electrons  1.798283036147474E-002
 soft         electrons  0.000000000000000E+000
 augmentation electrons  1.798283036147474E-002
 soft         electrons  0.000000000000000E+000
 augmentation electrons  1.798283036147474E-002
 augmentation electrons  1.798283036147474E-002
 soft         electrons  0.000000000000000E+000
 augmentation electrons  1.798283036147474E-002
 soft         electrons  0.000000000000000E+000
 augmentation electrons  1.798283036147474E-002
 soft         electrons  0.000000000000000E+000
 augmentation electrons  1.798283036147474E-002
 soft         electrons  0.000000000000000E+000
 augmentation electrons  1.798283036147474E-002
 soft         electrons  0.000000000000000E+000
 augmentation electrons  1.798283036147474E-002
 soft         electrons  0.000000000000000E+000
 augmentation electrons  1.798283036147474E-002
 soft         electrons  0.000000000000000E+000
 augmentation electrons  1.798283036147474E-002
 soft         electrons  0.000000000000000E+000
 augmentation electrons  1.798283036147474E-002
 soft         electrons  0.000000000000000E+000
 augmentation electrons  1.798283036147474E-002
 soft         electrons  0.000000000000000E+000
 augmentation electrons  1.798283036147474E-002
 soft         electrons  0.000000000000000E+000
 augmentation electrons  1.798283036147474E-002
 soft         electrons  0.000000000000000E+000
 augmentation electrons  1.798283036147474E-002
 soft         electrons  0.000000000000000E+000
 augmentation electrons  1.798283036147474E-002
 soft         electrons  0.000000000000000E+000
 augmentation electrons  1.798283036147474E-002
 soft         electrons  0.000000000000000E+000
 augmentation electrons  1.798283036147474E-002
 soft         electrons  0.000000000000000E+000
 soft         electrons  0.000000000000000E+000
 total        electrons  1.798283036147474E-002
 total        electrons  1.798283036147474E-002
 total        electrons  1.798283036147474E-002
 total        electrons  1.798283036147474E-002
 total        electrons  1.798283036147474E-002
 total        electrons  1.798283036147474E-002
 total        electrons  1.798283036147474E-002
 total        electrons  1.798283036147474E-002
 total        electrons  1.798283036147474E-002
 total        electrons  1.798283036147474E-002
 total        electrons  1.798283036147474E-002
 total        electrons  1.798283036147474E-002
 total        electrons  1.798283036147474E-002
 total        electrons  1.798283036147474E-002
 total        electrons  1.798283036147474E-002
 total        electrons  1.798283036147474E-002
 total        electrons  1.798283036147474E-002
 total        electrons  1.798283036147474E-002
 total        electrons  1.798283036147474E-002
 total        electrons  1.798283036147474E-002
 total        electrons  1.798283036147474E-002
 total        electrons  1.798283036147474E-002
 total        electrons  1.798283036147474E-002
 total        electrons  1.798283036147474E-002
 total        electrons  1.798283036147474E-002
 total        electrons  1.798283036147474E-002
 total        electrons  1.798283036147474E-002
 total        electrons  1.798283036147474E-002
 total        electrons  1.798283036147474E-002
 total        electrons  1.798283036147474E-002
 total        electrons  1.798283036147474E-002
 total        electrons  1.798283036147474E-002
 total        electrons  1.798283036147474E-002
 total        electrons  1.798283036147474E-002
 total        electrons  1.798283036147474E-002
 total        electrons  1.798283036147474E-002
 augmentation electrons   1331.07894586583     
 soft         electrons  0.000000000000000E+000
 augmentation electrons   1331.07894586583     
 augmentation electrons   1331.07894586583     
 soft         electrons  0.000000000000000E+000
 augmentation electrons   1331.07894586583     
 soft         electrons  0.000000000000000E+000
 augmentation electrons   1331.07894586583     
 soft         electrons  0.000000000000000E+000
 augmentation electrons   1331.07894586583     
 soft         electrons  0.000000000000000E+000
 augmentation electrons   1331.07894586583     
 soft         electrons  0.000000000000000E+000
 augmentation electrons   1331.07894586583     
 soft         electrons  0.000000000000000E+000
 augmentation electrons   1331.07894586583     
 soft         electrons  0.000000000000000E+000
 augmentation electrons   1331.07894586583     
 soft         electrons  0.000000000000000E+000
 augmentation electrons   1331.07894586583     
 soft         electrons  0.000000000000000E+000
 augmentation electrons   1331.07894586583     
 soft         electrons  0.000000000000000E+000
 augmentation electrons   1331.07894586583     
 soft         electrons  0.000000000000000E+000
 augmentation electrons   1331.07894586583     
 soft         electrons  0.000000000000000E+000
 augmentation electrons   1331.07894586583     
 soft         electrons  0.000000000000000E+000
 augmentation electrons   1331.07894586583     
 soft         electrons  0.000000000000000E+000
 augmentation electrons   1331.07894586583     
 soft         electrons  0.000000000000000E+000
 augmentation electrons   1331.07894586583     
 soft         electrons  0.000000000000000E+000
 augmentation electrons   1331.07894586583     
 soft         electrons  0.000000000000000E+000
 augmentation electrons   1331.07894586583     
 soft         electrons  0.000000000000000E+000
 augmentation electrons   1331.07894586583     
 soft         electrons  0.000000000000000E+000
 augmentation electrons   1331.07894586583     
 soft         electrons  0.000000000000000E+000
 augmentation electrons   1331.07894586583     
 soft         electrons  0.000000000000000E+000
 augmentation electrons   1331.07894586583     
 soft         electrons  0.000000000000000E+000
 augmentation electrons   1331.07894586583     
 soft         electrons  0.000000000000000E+000
 augmentation electrons   1331.07894586583     
 soft         electrons  0.000000000000000E+000
 augmentation electrons   1331.07894586583     
 soft         electrons  0.000000000000000E+000
 augmentation electrons   1331.07894586583     
 soft         electrons  0.000000000000000E+000
 augmentation electrons   1331.07894586583     
 soft         electrons  0.000000000000000E+000
 augmentation electrons   1331.07894586583     
 soft         electrons  0.000000000000000E+000
 augmentation electrons   1331.07894586583     
 soft         electrons  0.000000000000000E+000
 augmentation electrons   1331.07894586583     
 soft         electrons  0.000000000000000E+000
 augmentation electrons   1331.07894586583     
 soft         electrons  0.000000000000000E+000
 augmentation electrons   1331.07894586583     
 soft         electrons  0.000000000000000E+000
 augmentation electrons   1331.07894586583     
 soft         electrons  0.000000000000000E+000
 augmentation electrons   1331.07894586583     
 soft         electrons  0.000000000000000E+000
 soft         electrons  0.000000000000000E+000
 total        electrons   1331.07894586583     
 total        electrons   1331.07894586583     
 total        electrons   1331.07894586583     
 total        electrons   1331.07894586583     
 total        electrons   1331.07894586583     
 total        electrons   1331.07894586583     
 total        electrons   1331.07894586583     
 total        electrons   1331.07894586583     
 total        electrons   1331.07894586583     
 total        electrons   1331.07894586583     
 total        electrons   1331.07894586583     
 total        electrons   1331.07894586583     
 total        electrons   1331.07894586583     
 total        electrons   1331.07894586583     
 total        electrons   1331.07894586583     
 total        electrons   1331.07894586583     
 total        electrons   1331.07894586583     
 total        electrons   1331.07894586583     
 total        electrons   1331.07894586583     
 total        electrons   1331.07894586583     
 total        electrons   1331.07894586583     
 total        electrons   1331.07894586583     
 total        electrons   1331.07894586583     
 total        electrons   1331.07894586583     
 total        electrons   1331.07894586583     
 total        electrons   1331.07894586583     
 total        electrons   1331.07894586583     
 total        electrons   1331.07894586583     
 total        electrons   1331.07894586583     
 total        electrons   1331.07894586583     
 total        electrons   1331.07894586583     
 total        electrons   1331.07894586583     
 total        electrons   1331.07894586583     
 total        electrons   1331.07894586583     
 total        electrons   1331.07894586583     
 total        electrons   1331.07894586583     
 augmentation electrons   1269.95467257043     
 soft         electrons  0.000000000000000E+000
 augmentation electrons   1269.95467257043     
 soft         electrons  0.000000000000000E+000
 augmentation electrons   1269.95467257043     
 soft         electrons  0.000000000000000E+000
 augmentation electrons   1269.95467257043     
 soft         electrons  0.000000000000000E+000
 augmentation electrons   1269.95467257043     
 soft         electrons  0.000000000000000E+000
 augmentation electrons   1269.95467257043     
 soft         electrons  0.000000000000000E+000
 augmentation electrons   1269.95467257043     
 soft         electrons  0.000000000000000E+000
 augmentation electrons   1269.95467257043     
 soft         electrons  0.000000000000000E+000
 augmentation electrons   1269.95467257043     
 soft         electrons  0.000000000000000E+000
 augmentation electrons   1269.95467257043     
 soft         electrons  0.000000000000000E+000
 augmentation electrons   1269.95467257043     
 soft         electrons  0.000000000000000E+000
 augmentation electrons   1269.95467257043     
 soft         electrons  0.000000000000000E+000
 augmentation electrons   1269.95467257043     
 soft         electrons  0.000000000000000E+000
 augmentation electrons   1269.95467257043     
 soft         electrons  0.000000000000000E+000
 augmentation electrons   1269.95467257043     
 soft         electrons  0.000000000000000E+000
 augmentation electrons   1269.95467257043     
 soft         electrons  0.000000000000000E+000
 augmentation electrons   1269.95467257043     
 soft         electrons  0.000000000000000E+000
 augmentation electrons   1269.95467257043     
 soft         electrons  0.000000000000000E+000
 augmentation electrons   1269.95467257043     
 soft         electrons  0.000000000000000E+000
 augmentation electrons   1269.95467257043     
 soft         electrons  0.000000000000000E+000
 augmentation electrons   1269.95467257043     
 soft         electrons  0.000000000000000E+000
 augmentation electrons   1269.95467257043     
 soft         electrons  0.000000000000000E+000
 augmentation electrons   1269.95467257043     
 soft         electrons  0.000000000000000E+000
 augmentation electrons   1269.95467257043     
 augmentation electrons   1269.95467257043     
 soft         electrons  0.000000000000000E+000
 augmentation electrons   1269.95467257043     
 soft         electrons  0.000000000000000E+000
 augmentation electrons   1269.95467257043     
 soft         electrons  0.000000000000000E+000
 augmentation electrons   1269.95467257043     
 soft         electrons  0.000000000000000E+000
 augmentation electrons   1269.95467257043     
 soft         electrons  0.000000000000000E+000
 augmentation electrons   1269.95467257043     
 soft         electrons  0.000000000000000E+000
 augmentation electrons   1269.95467257043     
 soft         electrons  0.000000000000000E+000
 augmentation electrons   1269.95467257043     
 soft         electrons  0.000000000000000E+000
 augmentation electrons   1269.95467257043     
 soft         electrons  0.000000000000000E+000
 augmentation electrons   1269.95467257043     
 soft         electrons  0.000000000000000E+000
 augmentation electrons   1269.95467257043     
 soft         electrons  0.000000000000000E+000
 augmentation electrons   1269.95467257043     
 soft         electrons  0.000000000000000E+000
 soft         electrons  0.000000000000000E+000
 total        electrons   1269.95467257043     
 total        electrons   1269.95467257043     
 total        electrons   1269.95467257043     
 total        electrons   1269.95467257043     
 total        electrons   1269.95467257043     
 total        electrons   1269.95467257043     
 total        electrons   1269.95467257043     
 total        electrons   1269.95467257043     
 total        electrons   1269.95467257043     
 total        electrons   1269.95467257043     
 total        electrons   1269.95467257043     
 total        electrons   1269.95467257043     
 total        electrons   1269.95467257043     
 total        electrons   1269.95467257043     
 total        electrons   1269.95467257043     
 total        electrons   1269.95467257043     
 total        electrons   1269.95467257043     
 total        electrons   1269.95467257043     
 total        electrons   1269.95467257043     
 total        electrons   1269.95467257043     
 total        electrons   1269.95467257043     
 total        electrons   1269.95467257043     
 total        electrons   1269.95467257043     
 total        electrons   1269.95467257043     
 total        electrons   1269.95467257043     
 total        electrons   1269.95467257043     
 total        electrons   1269.95467257043     
 total        electrons   1269.95467257043     
 total        electrons   1269.95467257043     
 total        electrons   1269.95467257043     
 total        electrons   1269.95467257043     
 total        electrons   1269.95467257043     
 total        electrons   1269.95467257043     
 total        electrons   1269.95467257043     
 total        electrons   1269.95467257043     
 total        electrons   1269.95467257043     
 WARNING: random wavefunctions but no delay for mixing, default for NELMDL
 entering main loop
       N       E                     dE             d eps       ncg     rms          rms(c)
DAV:   1     0.103420287877E+05    0.10342E+05   -0.22041E+05  6928   0.136E+03
DAV:   2     0.350026006953E+04   -0.68418E+04   -0.60162E+04  7760   0.373E+02
DAV:   3     0.780849488689E+02   -0.34222E+04   -0.33019E+04  8776   0.248E+02
DAV:   4    -0.737833111664E+03   -0.81592E+03   -0.76695E+03 10248   0.123E+02
DAV:   5    -0.803939450315E+03   -0.66106E+02   -0.65689E+02 11528   0.438E+01    0.134E+02
RMM:   6    -0.602269913271E+03    0.20167E+03   -0.14479E+03  9727   0.481E+01    0.605E+01
RMM:   7    -0.612244403641E+03   -0.99745E+01   -0.54204E+02  8418   0.590E+01    0.104E+02
RMM:   8    -0.630284391460E+03   -0.18040E+02   -0.15753E+02 11626   0.119E+01    0.838E+01
RMM:   9    -0.595702010481E+03    0.34582E+02   -0.15172E+02 11220   0.170E+01    0.652E+01
RMM:  10    -0.612751331182E+03   -0.17049E+02   -0.16497E+02 10930   0.154E+01    0.629E+01
RMM:  11    -0.623013865850E+03   -0.10263E+02   -0.46854E+01 11105   0.982E+00    0.705E+01
RMM:  12    -0.623807208396E+03   -0.79334E+00   -0.17961E+01  9222   0.825E+00    0.791E+01
RMM:  13    -0.644914199891E+03   -0.21107E+02   -0.25960E+01 11069   0.624E+00    0.993E+01
RMM:  14    -0.665123933333E+03   -0.20210E+02   -0.29053E+01 11116   0.673E+00    0.110E+02
RMM:  15    -0.681322016965E+03   -0.16198E+02   -0.16603E+01 11237   0.422E+00    0.130E+02
RMM:  16    -0.691933524177E+03   -0.10612E+02   -0.91832E+00 11412   0.318E+00    0.142E+02
RMM:  17    -0.693006964202E+03   -0.10734E+01   -0.16897E+00 13349   0.107E+00    0.143E+02
RMM:  18    -0.703488590077E+03   -0.10482E+02   -0.71085E+00 11371   0.307E+00    0.146E+02
RMM:  19    -0.698349370880E+03    0.51392E+01   -0.26056E+00 10658   0.221E+00    0.143E+02
RMM:  20    -0.710694721268E+03   -0.12345E+02   -0.79418E+00 10886   0.313E+00    0.153E+02
RMM:  21    -0.717990862684E+03   -0.72961E+01   -0.40658E+00 11322   0.205E+00    0.159E+02
RMM:  22    -0.717701322329E+03    0.28954E+00   -0.67060E-01 12186   0.706E-01    0.160E+02
RMM:  23    -0.716961277074E+03    0.74005E+00   -0.29354E-01 11443   0.635E-01    0.159E+02
RMM:  24    -0.718438120213E+03   -0.14768E+01   -0.43668E-01 11528   0.724E-01    0.160E+02
RMM:  25    -0.718201121786E+03    0.23700E+00   -0.76382E-02 11522   0.332E-01    0.160E+02
RMM:  26    -0.717665604949E+03    0.53552E+00   -0.20479E-01 10771   0.623E-01    0.159E+02
RMM:  27    -0.717741980988E+03   -0.76376E-01   -0.31102E-01 10453   0.680E-01    0.160E+02
RMM:  28    -0.717726308655E+03    0.15672E-01   -0.88027E-02 11046   0.284E-01    0.160E+02
RMM:  29    -0.717797315902E+03   -0.71007E-01   -0.51556E-02 10300   0.317E-01    0.160E+02
RMM:  30    -0.717645942792E+03    0.15137E+00   -0.40668E-02 10546   0.249E-01    0.160E+02
RMM:  31    -0.717590940157E+03    0.55003E-01   -0.72448E-03  9691   0.128E-01    0.160E+02
RMM:  32    -0.717493992490E+03    0.96948E-01   -0.64690E-03  9771   0.123E-01    0.160E+02
RMM:  33    -0.717674716284E+03   -0.18072E+00   -0.34892E-02 10228   0.244E-01    0.160E+02
RMM:  34    -0.717738012596E+03   -0.63296E-01   -0.21334E-02 10038   0.199E-01    0.160E+02
RMM:  35    -0.717852514358E+03   -0.11450E+00   -0.42734E-02 10014   0.272E-01    0.160E+02
RMM:  36    -0.717834687920E+03    0.17826E-01   -0.90181E-02 10532   0.414E-01    0.160E+02
RMM:  37    -0.717411746737E+03    0.42294E+00   -0.14502E-01 10240   0.480E-01    0.160E+02
RMM:  38    -0.718364380196E+03   -0.95263E+00   -0.13606E-01 10201   0.480E-01    0.161E+02
RMM:  39    -0.718396291655E+03   -0.31911E-01   -0.33318E-02  9621   0.226E-01    0.161E+02
RMM:  40    -0.719453065683E+03   -0.10568E+01   -0.34125E-01 10368   0.773E-01    0.161E+02
RMM:  41    -0.719495005625E+03   -0.41940E-01   -0.66856E-02 10220   0.255E-01    0.161E+02
RMM:  42    -0.719745014894E+03   -0.25001E+00   -0.22676E-02  9759   0.191E-01    0.161E+02
RMM:  43    -0.719909512829E+03   -0.16450E+00   -0.28400E-02 10208   0.228E-01    0.161E+02
RMM:  44    -0.720087467328E+03   -0.17795E+00   -0.29819E-02 10360   0.221E-01    0.161E+02
RMM:  45    -0.720175335730E+03   -0.87868E-01   -0.21685E-02  9874   0.182E-01    0.161E+02
RMM:  46    -0.721678741416E+03   -0.15034E+01   -0.35061E-01 10505   0.695E-01    0.163E+02
RMM:  47    -0.721990603004E+03   -0.31186E+00   -0.17515E-01 10433   0.579E-01    0.164E+02
RMM:  48    -0.723386029560E+03   -0.13954E+01   -0.20961E-01 10275   0.630E-01    0.165E+02
RMM:  49    -0.723243141377E+03    0.14289E+00   -0.13110E-01 10582   0.391E-01    0.165E+02
RMM:  50    -0.723794190393E+03   -0.55105E+00   -0.16372E-01 10180   0.502E-01    0.165E+02
RMM:  51    -0.581946571543E+03    0.14185E+03   -0.50822E+02 10033   0.261E+01    0.673E+01
RMM:  52    -0.588622187652E+03   -0.66756E+01   -0.94459E+01 11024   0.126E+01    0.452E+01
RMM:  53    -0.601478635696E+03   -0.12856E+02   -0.28488E+01 11045   0.750E+00    0.387E+01
RMM:  54    -0.604615566141E+03   -0.31369E+01   -0.10648E+01 11226   0.368E+00    0.349E+01
RMM:  55    -0.609549444714E+03   -0.49339E+01   -0.47792E+00 10917   0.312E+00    0.336E+01
RMM:  56    -0.616524024060E+03   -0.69746E+01   -0.76817E+00 10474   0.434E+00    0.364E+01
RMM:  57    -0.617868293345E+03   -0.13443E+01   -0.31925E+00 10971   0.271E+00    0.355E+01
RMM:  58    -0.619028158942E+03   -0.11599E+01   -0.25237E+00 10687   0.259E+00    0.359E+01
RMM:  59    -0.619383716044E+03   -0.35556E+00   -0.40310E+00 10435   0.356E+00    0.366E+01
RMM:  60    -0.618727737119E+03    0.65598E+00   -0.43615E+00 10709   0.363E+00    0.402E+01
RMM:  61    -0.610847766759E+03    0.78800E+01   -0.15800E+01 10338   0.776E+00    0.453E+01
RMM:  62    -0.614488983057E+03   -0.36412E+01   -0.44255E+00 10386   0.388E+00    0.439E+01
RMM:  63    -0.614366707387E+03    0.12228E+00   -0.13546E+00 11171   0.195E+00    0.438E+01
RMM:  64    -0.615858841926E+03   -0.14921E+01   -0.94126E-01 10416   0.189E+00    0.437E+01
RMM:  65    -0.615877101490E+03   -0.18260E-01   -0.28943E-01 11761   0.689E-01    0.437E+01
RMM:  66    -0.596342615568E+03    0.19534E+02   -0.27608E+01 10586   0.101E+01    0.423E+01
RMM:  67    -0.610076414477E+03   -0.13734E+02   -0.73571E+00 10380   0.548E+00    0.373E+01
RMM:  68    -0.612362201870E+03   -0.22858E+01   -0.38885E+00 10851   0.380E+00    0.334E+01
RMM:  69    -0.617474290046E+03   -0.51121E+01   -0.30847E+00 10981   0.313E+00    0.288E+01
RMM:  70    -0.622862669250E+03   -0.53884E+01   -0.17239E+00 10996   0.239E+00    0.264E+01
RMM:  71    -0.629689374914E+03   -0.68267E+01   -0.59760E+00 10440   0.474E+00    0.240E+01
RMM:  72    -0.631792510949E+03   -0.21031E+01   -0.30948E+00 10914   0.307E+00    0.226E+01
RMM:  73    -0.631332241033E+03    0.46027E+00   -0.17555E+00 11055   0.218E+00    0.211E+01
RMM:  74    -0.632461591645E+03   -0.11294E+01   -0.10125E+00 10718   0.188E+00    0.195E+01
RMM:  75    -0.633764972179E+03   -0.13034E+01   -0.95758E-01 11034   0.171E+00    0.178E+01
RMM:  76    -0.634898825574E+03   -0.11339E+01   -0.24346E+00 10623   0.301E+00    0.169E+01
RMM:  77    -0.635037565300E+03   -0.13874E+00   -0.14909E+00 11159   0.182E+00    0.160E+01
RMM:  78    -0.634722039558E+03    0.31553E+00   -0.95572E-01 11086   0.165E+00    0.156E+01
RMM:  79    -0.634191268691E+03    0.53077E+00   -0.10020E+00 11164   0.155E+00    0.159E+01
RMM:  80    -0.634185813512E+03    0.54552E-02   -0.36393E-01 11072   0.102E+00    0.163E+01
RMM:  81    -0.633635495511E+03    0.55032E+00   -0.12914E+00 10288   0.228E+00    0.177E+01
RMM:  82    -0.633747042589E+03   -0.11155E+00   -0.43222E-01 10376   0.114E+00    0.175E+01
RMM:  83    -0.633551909134E+03    0.19513E+00   -0.27205E-01 10625   0.109E+00    0.175E+01
RMM:  84    -0.633267350879E+03    0.28456E+00   -0.44515E-01 11089   0.116E+00    0.175E+01
RMM:  85    -0.633064342867E+03    0.20301E+00   -0.66337E-01 10963   0.142E+00    0.179E+01
RMM:  86    -0.635060479937E+03   -0.19961E+01   -0.24858E+00 10513   0.339E+00    0.192E+01
RMM:  87    -0.634789429723E+03    0.27105E+00   -0.10441E+00 10554   0.192E+00    0.195E+01
RMM:  88    -0.635034193467E+03   -0.24476E+00   -0.68755E-01 11062   0.139E+00    0.201E+01
RMM:  89    -0.634001581955E+03    0.10326E+01   -0.73390E-01 10825   0.157E+00    0.211E+01
RMM:  90    -0.632807578456E+03    0.11940E+01   -0.75247E-01 11270   0.148E+00    0.265E+01
RMM:  91    -0.638971685017E+03   -0.61641E+01   -0.18778E+01 10096   0.919E+00    0.151E+01
RMM:  92    -0.642740125121E+03   -0.37684E+01   -0.40209E+00 10898   0.342E+00    0.104E+01
RMM:  93    -0.643870655676E+03   -0.11305E+01   -0.14926E+00 10250   0.228E+00    0.812E+00
RMM:  94    -0.644771352793E+03   -0.90070E+00   -0.13936E+00 11064   0.165E+00    0.802E+00
RMM:  95    -0.645083354750E+03   -0.31200E+00   -0.85402E-01 11006   0.134E+00    0.671E+00
RMM:  96    -0.645324894917E+03   -0.24154E+00   -0.96303E-01 11141   0.134E+00    0.574E+00
RMM:  97    -0.645572089500E+03   -0.24719E+00   -0.32428E-01 10762   0.923E-01    0.466E+00
RMM:  98    -0.645672724505E+03   -0.10064E+00   -0.30565E-01 11204   0.724E-01    0.418E+00
RMM:  99    -0.645723978769E+03   -0.51254E-01   -0.17747E-01 11278   0.536E-01    0.395E+00
RMM: 100    -0.645710921939E+03    0.13057E-01   -0.10333E-01 11264   0.409E-01    0.385E+00
RMM: 101    -0.645739823596E+03   -0.28902E-01   -0.17690E-01 10182   0.784E-01    0.343E+00
RMM: 102    -0.645786055619E+03   -0.46232E-01   -0.66296E-02 11144   0.316E-01    0.326E+00
RMM: 103    -0.645793892562E+03   -0.78369E-02   -0.54904E-02 10553   0.389E-01    0.312E+00
RMM: 104    -0.645793905859E+03   -0.13297E-04   -0.75487E-02 11075   0.338E-01    0.299E+00
RMM: 105    -0.645800651587E+03   -0.67457E-02   -0.23104E-02 10917   0.198E-01    0.287E+00
RMM: 106    -0.645805408950E+03   -0.47574E-02   -0.59868E-02 11115   0.356E-01    0.278E+00
RMM: 107    -0.645828027530E+03   -0.22619E-01   -0.10311E-02  9758   0.187E-01    0.263E+00
RMM: 108    -0.645846466311E+03   -0.18439E-01   -0.20564E-02 10902   0.198E-01    0.249E+00
RMM: 109    -0.645863515387E+03   -0.17049E-01   -0.12403E-02 10676   0.159E-01    0.241E+00
RMM: 110    -0.645870755138E+03   -0.72398E-02   -0.18764E-02 10936   0.194E-01    0.234E+00
RMM: 111    -0.645866122262E+03    0.46329E-02   -0.87772E-03  9718   0.171E-01    0.233E+00
RMM: 112    -0.645868319293E+03   -0.21970E-02   -0.47619E-03  9189   0.839E-02    0.226E+00
RMM: 113    -0.645868909477E+03   -0.59018E-03   -0.63962E-04  7230   0.458E-02    0.223E+00
RMM: 114    -0.645867025197E+03    0.18843E-02   -0.13174E-03  8454   0.555E-02    0.217E+00
RMM: 115    -0.645866882350E+03    0.14285E-03   -0.26595E-04  6254   0.377E-02    0.215E+00
RMM: 116    -0.645866238501E+03    0.64385E-03   -0.22764E-03  8260   0.797E-02    0.212E+00
RMM: 117    -0.645867319071E+03   -0.10806E-02   -0.10382E-03  7774   0.623E-02    0.206E+00
RMM: 118    -0.645868490866E+03   -0.11718E-02   -0.23412E-03  9158   0.739E-02    0.196E+00
RMM: 119    -0.645870882872E+03   -0.23920E-02   -0.22853E-03  8920   0.786E-02    0.184E+00
RMM: 120    -0.645873289637E+03   -0.24068E-02   -0.14890E-03  8485   0.657E-02    0.174E+00
RMM: 121    -0.645877008538E+03   -0.37189E-02   -0.51315E-03  9766   0.119E-01    0.160E+00
RMM: 122    -0.645880478322E+03   -0.34698E-02   -0.46404E-03  9365   0.120E-01    0.136E+00
RMM: 123    -0.645885645949E+03   -0.51676E-02   -0.86895E-03 10382   0.135E-01    0.105E+00
RMM: 124    -0.645888894570E+03   -0.32486E-02   -0.42483E-03  9909   0.961E-02    0.813E-01
RMM: 125    -0.645889657777E+03   -0.76321E-03   -0.37198E-03  9847   0.910E-02    0.606E-01
RMM: 126    -0.645890008012E+03   -0.35024E-03   -0.61742E-03  9997   0.123E-01    0.338E-01
RMM: 127    -0.645890587684E+03   -0.57967E-03   -0.23996E-03  8538   0.615E-02    0.266E-01
RMM: 128    -0.645891223519E+03   -0.63583E-03   -0.10219E-03  8093   0.529E-02    0.176E-01
RMM: 129    -0.645891851099E+03   -0.62758E-03   -0.62887E-04  7406   0.441E-02    0.129E-01
RMM: 130    -0.645892334487E+03   -0.48339E-03   -0.43443E-04  6940   0.382E-02    0.921E-02
RMM: 131    -0.645892776821E+03   -0.44233E-03   -0.83397E-04  7833   0.453E-02    0.340E-02
RMM: 132    -0.645892867891E+03   -0.91070E-04   -0.13677E-04  6045   0.308E-02
   1 F= -.64589287E+03 E0= -.64589287E+03  d E =-.604295E-13  mag=     1.0139
 augmentation electrons  -7.22571648850615     
 soft         electrons   656.364861453903     
 augmentation electrons  -7.22571648850615     
 soft         electrons   656.364861453903     
 augmentation electrons  -7.22571648850615     
 soft         electrons   656.364861453903     
 augmentation electrons  -7.22571648850615     
 soft         electrons   656.364861453903     
 augmentation electrons  -7.22571648850615     
 soft         electrons   656.364861453903     
 augmentation electrons  -7.22571648850615     
 soft         electrons   656.364861453903     
 augmentation electrons  -7.22571648850615     
 augmentation electrons  -7.22571648850615     
 soft         electrons   656.364861453903     
 augmentation electrons  -7.22571648850615     
 soft         electrons   656.364861453903     
 augmentation electrons  -7.22571648850615     
 soft         electrons   656.364861453903     
 augmentation electrons  -7.22571648850615     
 soft         electrons   656.364861453903     
 augmentation electrons  -7.22571648850615     
 soft         electrons   656.364861453903     
 augmentation electrons  -7.22571648850615     
 soft         electrons   656.364861453903     
 augmentation electrons  -7.22571648850615     
 soft         electrons   656.364861453903     
 augmentation electrons  -7.22571648850615     
 soft         electrons   656.364861453903     
 augmentation electrons  -7.22571648850615     
 soft         electrons   656.364861453903     
 augmentation electrons  -7.22571648850615     
 soft         electrons   656.364861453903     
 augmentation electrons  -7.22571648850615     
 soft         electrons   656.364861453903     
 augmentation electrons  -7.22571648850615     
 soft         electrons   656.364861453903     
 augmentation electrons  -7.22571648850615     
 soft         electrons   656.364861453903     
 augmentation electrons  -7.22571648850615     
 soft         electrons   656.364861453903     
 augmentation electrons  -7.22571648850615     
 soft         electrons   656.364861453903     
 augmentation electrons  -7.22571648850615     
 soft         electrons   656.364861453903     
 augmentation electrons  -7.22571648850615     
 soft         electrons   656.364861453903     
 augmentation electrons  -7.22571648850615     
 soft         electrons   656.364861453903     
 augmentation electrons  -7.22571648850615     
 soft         electrons   656.364861453903     
 augmentation electrons  -7.22571648850615     
 soft         electrons   656.364861453903     
 augmentation electrons  -7.22571648850615     
 soft         electrons   656.364861453903     
 augmentation electrons  -7.22571648850615     
 soft         electrons   656.364861453903     
 augmentation electrons  -7.22571648850615     
 soft         electrons   656.364861453903     
 augmentation electrons  -7.22571648850615     
 soft         electrons   656.364861453903     
 augmentation electrons  -7.22571648850615     
 soft         electrons   656.364861453903     
 augmentation electrons  -7.22571648850615     
 soft         electrons   656.364861453903     
 augmentation electrons  -7.22571648850615     
 soft         electrons   656.364861453903     
 augmentation electrons  -7.22571648850615     
 soft         electrons   656.364861453903     
 augmentation electrons  -7.22571648850615     
 soft         electrons   656.364861453903     
 soft         electrons   656.364861453903     
 total        electrons   649.139144965397     
 total        electrons   649.139144965397     
 total        electrons   649.139144965397     
 total        electrons   649.139144965397     
 total        electrons   649.139144965397     
 total        electrons   649.139144965397     
 total        electrons   649.139144965397     
 total        electrons   649.139144965397     
 total        electrons   649.139144965397     
 total        electrons   649.139144965397     
 total        electrons   649.139144965397     
 total        electrons   649.139144965397     
 total        electrons   649.139144965397     
 total        electrons   649.139144965397     
 total        electrons   649.139144965397     
 total        electrons   649.139144965397     
 total        electrons   649.139144965397     
 total        electrons   649.139144965397     
 total        electrons   649.139144965397     
 total        electrons   649.139144965397     
 total        electrons   649.139144965397     
 total        electrons   649.139144965397     
 total        electrons   649.139144965397     
 total        electrons   649.139144965397     
 total        electrons   649.139144965397     
 total        electrons   649.139144965397     
 total        electrons   649.139144965397     
 total        electrons   649.139144965397     
 total        electrons   649.139144965397     
 total        electrons   649.139144965397     
 total        electrons   649.139144965397     
 total        electrons   649.139144965397     
 total        electrons   649.139144965397     
 total        electrons   649.139144965397     
 total        electrons   649.139144965397     
 total        electrons   649.139144965397     
 augmentation electrons  0.395189555325566     
 soft         electrons   656.364861453903     
 augmentation electrons  0.395189555325566     
 soft         electrons   656.364861453903     
 augmentation electrons  0.395189555325566     
 soft         electrons   656.364861453903     
 augmentation electrons  0.395189555325566     
 soft         electrons   656.364861453903     
 augmentation electrons  0.395189555325566     
 soft         electrons   656.364861453903     
 augmentation electrons  0.395189555325566     
 soft         electrons   656.364861453903     
 augmentation electrons  0.395189555325566     
 soft         electrons   656.364861453903     
 augmentation electrons  0.395189555325566     
 soft         electrons   656.364861453903     
 augmentation electrons  0.395189555325566     
 soft         electrons   656.364861453903     
 augmentation electrons  0.395189555325566     
 soft         electrons   656.364861453903     
 augmentation electrons  0.395189555325566     
 augmentation electrons  0.395189555325566     
 soft         electrons   656.364861453903     
 augmentation electrons  0.395189555325566     
 soft         electrons   656.364861453903     
 augmentation electrons  0.395189555325566     
 soft         electrons   656.364861453903     
 augmentation electrons  0.395189555325566     
 soft         electrons   656.364861453903     
 augmentation electrons  0.395189555325566     
 soft         electrons   656.364861453903     
 augmentation electrons  0.395189555325566     
 soft         electrons   656.364861453903     
 augmentation electrons  0.395189555325566     
 soft         electrons   656.364861453903     
 augmentation electrons  0.395189555325566     
 soft         electrons   656.364861453903     
 augmentation electrons  0.395189555325566     
 soft         electrons   656.364861453903     
 augmentation electrons  0.395189555325566     
 soft         electrons   656.364861453903     
 augmentation electrons  0.395189555325566     
 soft         electrons   656.364861453903     
 augmentation electrons  0.395189555325566     
 soft         electrons   656.364861453903     
 augmentation electrons  0.395189555325566     
 soft         electrons   656.364861453903     
 augmentation electrons  0.395189555325566     
 soft         electrons   656.364861453903     
 augmentation electrons  0.395189555325566     
 soft         electrons   656.364861453903     
 augmentation electrons  0.395189555325566     
 soft         electrons   656.364861453903     
 augmentation electrons  0.395189555325566     
 soft         electrons   656.364861453903     
 augmentation electrons  0.395189555325566     
 soft         electrons   656.364861453903     
 augmentation electrons  0.395189555325566     
 soft         electrons   656.364861453903     
 augmentation electrons  0.395189555325566     
 soft         electrons   656.364861453903     
 augmentation electrons  0.395189555325566     
 soft         electrons   656.364861453903     
 augmentation electrons  0.395189555325566     
 soft         electrons   656.364861453903     
 augmentation electrons  0.395189555325566     
 soft         electrons   656.364861453903     
 augmentation electrons  0.395189555325566     
 soft         electrons   656.364861453903     
 augmentation electrons  0.395189555325566     
 soft         electrons   656.364861453903     
 soft         electrons   656.364861453903     
 total        electrons  0.999709939415049     
 total        electrons  0.999709939415049     
 total        electrons  0.999709939415049     
 total        electrons  0.999709939415049     
 total        electrons  0.999709939415049     
 total        electrons  0.999709939415049     
 total        electrons  0.999709939415049     
 total        electrons  0.999709939415049     
 total        electrons  0.999709939415049     
 total        electrons  0.999709939415049     
 total        electrons  0.999709939415049     
 total        electrons  0.999709939415049     
 total        electrons  0.999709939415049     
 total        electrons  0.999709939415049     
 total        electrons  0.999709939415049     
 total        electrons  0.999709939415049     
 total        electrons  0.999709939415049     
 total        electrons  0.999709939415049     
 total        electrons  0.999709939415049     
 total        electrons  0.999709939415049     
 total        electrons  0.999709939415049     
 total        electrons  0.999709939415049     
 total        electrons  0.999709939415049     
 total        electrons  0.999709939415049     
 total        electrons  0.999709939415049     
 total        electrons  0.999709939415049     
 total        electrons  0.999709939415049     
 total        electrons  0.999709939415049     
 total        electrons  0.999709939415049     
 total        electrons  0.999709939415049     
 total        electrons  0.999709939415049     
 total        electrons  0.999709939415049     
 total        electrons  0.999709939415049     
 total        electrons  0.999709939415049     
 total        electrons  0.999709939415049     
 total        electrons  0.999709939415049     
