 vasp.5.4.4.18Apr17-6-g9f103f2a35 (build Dec 09 2019 14:45:46) complex with cons
 t
 executed on                ccsms date 2024.12.18  03:34:10
 running on   36 total cores
 distrk:  each k-point on   36 cores,    1 groups
 distr:  one band on NCORES_PER_BAND=   9 cores,    4 groups


--------------------------------------------------------------------------------------------------------


 INCAR:
 POTCAR:    PAW_PBE O 08Apr2002                   
 POTCAR:    PAW_PBE Ce 23Dec2003                  
 POTCAR:    PAW_PBE Ag 02Apr2005                  
 POTCAR:    PAW_PBE H 15Jun2001                   
 POTCAR:    PAW_PBE O 08Apr2002                   
   VRHFIN =O: s2p4                                                              
   LEXCH  = PE                                                                  
   EATOM  =   432.3788 eV,   31.7789 Ry                                         
                                                                                
   TITEL  = PAW_PBE O 08Apr2002                                                 
   LULTRA =        F    use ultrasoft PP ?                                      
   IUNSCR =        1    unscreen: 0-lin 1-nonlin 2-no                           
   RPACOR =    1.200    partial core radius                                     
   POMASS =   16.000; ZVAL   =    6.000    mass and valenz                      
   RCORE  =    1.520    outmost cutoff radius                                   
   RWIGS  =    1.550; RWIGS  =    0.820    wigner-seitz radius (au A)           
   ENMAX  =  400.000; ENMIN  =  300.000 eV                                      
   ICORE  =        2    local potential                                         
   LCOR   =        T    correct aug charges                                     
   LPAW   =        T    paw PP                                                  
   EAUG   =  605.392                                                            
   DEXC   =    0.000                                                            
   RMAX   =    1.553    core radius for proj-oper                               
   RAUG   =    1.300    factor for augmentation sphere                          
   RDEP   =    1.550    radius for radial grids                                 
   RDEPT  =    1.329    core radius for aug-charge                              
                                                                                
   Atomic configuration                                                         
    4 entries                                                                   
     n  l   j            E        occ.                                          
     1  0  0.50      -514.6923   2.0000                                         
     2  0  0.50       -23.9615   2.0000                                         
     2  1  0.50        -9.0305   4.0000                                         
     3  2  1.50        -9.5241   0.0000                                         
   Description                                                                  
     l       E           TYP  RCUT    TYP  RCUT                                 
     0    -23.9615318     23  1.200                                             
     0     -9.5240782     23  1.200                                             
     1     -9.0304911     23  1.520                                             
     1      8.1634956     23  1.520                                             
     2     -9.5240782      7  1.500                                             
  local pseudopotential read in
  partial core-charges read in
  partial kinetic energy density read in
  kinetic energy density of atom read in
  atomic valenz-charges read in
  non local Contribution for L=           0  read in
    real space projection operators read in
  non local Contribution for L=           0  read in
    real space projection operators read in
  non local Contribution for L=           1  read in
    real space projection operators read in
  non local Contribution for L=           1  read in
    real space projection operators read in
    PAW grid and wavefunctions read in
 
   number of l-projection  operators is LMAX  =           4
   number of lm-projection operators is LMMAX =           8
 
 POTCAR:    PAW_PBE Ce 23Dec2003                  
   VRHFIN =Ce : [core= Kr 4d10]                                                 
   LEXCH  = PE                                                                  
   EATOM  =  1063.0861 eV,   78.1346 Ry                                         
                                                                                
   TITEL  = PAW_PBE Ce 23Dec2003                                                
   LULTRA =        F    use ultrasoft PP ?                                      
   IUNSCR =        1    unscreen: 0-lin 1-nonlin 2-no                           
   RPACOR =    1.800    partial core radius                                     
   POMASS =  140.115; ZVAL   =   12.000    mass and valenz                      
   RCORE  =    2.700    outmost cutoff radius                                   
   RWIGS  =    2.500; RWIGS  =    1.323    wigner-seitz radius (au A)           
   ENMAX  =  273.042; ENMIN  =  204.781 eV                                      
   RCLOC  =    1.810    cutoff for local pot                                    
   LCOR   =        T    correct aug charges                                     
   LPAW   =        T    paw PP                                                  
   EAUG   =  580.196                                                            
   DEXC   =    0.000                                                            
   RMAX   =    2.749    core radius for proj-oper                               
   RAUG   =    1.300    factor for augmentation sphere                          
   RDEP   =    2.810    radius for radial grids                                 
   RDEPT  =    2.162    core radius for aug-charge                              
                                                                                
   Atomic configuration                                                         
   14 entries                                                                   
     n  l   j            E        occ.                                          
     1  0  0.50    -40258.9816   2.0000                                         
     2  0  0.50     -6445.4884   2.0000                                         
     2  1  1.50     -5771.7470   6.0000                                         
     3  0  0.50     -1387.9739   2.0000                                         
     3  1  1.50     -1173.8158   6.0000                                         
     3  2  2.50      -869.9108  10.0000                                         
     4  0  0.50      -280.8706   2.0000                                         
     4  1  1.50      -210.9815   6.0000                                         
     4  2  2.50      -110.4558  10.0000                                         
     5  0  0.50       -40.5819   2.0000                                         
     6  0  0.50        -3.7444   2.0000                                         
     5  1  1.50       -23.2188   6.0000                                         
     5  2  2.50        -3.0598   1.0000                                         
     4  3  2.50        -5.3970   1.0000                                         
   Description                                                                  
     l       E           TYP  RCUT    TYP  RCUT                                 
     0    -40.5819164     23  1.500                                             
     0     -3.7443793     23  2.300                                             
     1    -23.2188445     23  2.000                                             
     1     40.8174780     23  2.300                                             
     2     -3.0597556     23  2.500                                             
     2     13.6058260     23  2.500                                             
     3     -5.3970469     23  2.700                                             
     3     -5.8505052     23  2.700                                             
  local pseudopotential read in
  partial core-charges read in
  partial kinetic energy density read in
  atomic valenz-charges read in
  non local Contribution for L=           0  read in
    real space projection operators read in
  non local Contribution for L=           0  read in
    real space projection operators read in
  non local Contribution for L=           1  read in
    real space projection operators read in
  non local Contribution for L=           1  read in
    real space projection operators read in
  non local Contribution for L=           2  read in
    real space projection operators read in
  non local Contribution for L=           2  read in
    real space projection operators read in
  non local Contribution for L=           3  read in
    real space projection operators read in
  non local Contribution for L=           3  read in
    real space projection operators read in
    PAW grid and wavefunctions read in
 
   number of l-projection  operators is LMAX  =           8
   number of lm-projection operators is LMMAX =          32
 
 POTCAR:    PAW_PBE Ag 02Apr2005                  
   VRHFIN =Ag : s1 d10                                                          
   LEXCH  = PE                                                                  
   EATOM  =  1037.2675 eV,   76.2370 Ry                                         
                                                                                
   TITEL  = PAW_PBE Ag 02Apr2005                                                
   LULTRA =        F    use ultrasoft PP ?                                      
   IUNSCR =        1    unscreen: 0-lin 1-nonlin 2-no                           
   RPACOR =    2.000    partial core radius                                     
   POMASS =  107.868; ZVAL   =   11.000    mass and valenz                      
   RCORE  =    2.500    outmost cutoff radius                                   
   RWIGS  =    2.840; RWIGS  =    1.503    wigner-seitz radius (au A)           
   ENMAX  =  249.844; ENMIN  =  187.383 eV                                      
   ICORE  =        3    local potential                                         
   LCOR   =        T    correct aug charges                                     
   LPAW   =        T    paw PP                                                  
   EAUG   =  412.496                                                            
   DEXC   =    0.000                                                            
   RMAX   =    2.560    core radius for proj-oper                               
   RAUG   =    1.300    factor for augmentation sphere                          
   RDEP   =    2.576    radius for radial grids                                 
   RDEPT  =    2.072    core radius for aug-charge                              
                                                                                
   Atomic configuration                                                         
   12 entries                                                                   
     n  l   j            E        occ.                                          
     1  0  0.50    -25324.9161   2.0000                                         
     2  0  0.50     -3728.5341   2.0000                                         
     2  1  1.50     -3344.0404   6.0000                                         
     3  0  0.50      -683.5581   2.0000                                         
     3  1  1.50      -557.3225   6.0000                                         
     3  2  2.50      -358.3853  10.0000                                         
     4  0  0.50       -95.0341   2.0000                                         
     4  1  1.50       -58.5511   6.0000                                         
     4  2  2.50        -7.4440  10.0000                                         
     5  0  0.50        -4.4045   1.0000                                         
     5  1  0.50        -1.3606   0.0000                                         
     4  3  2.50        -1.3606   0.0000                                         
   Description                                                                  
     l       E           TYP  RCUT    TYP  RCUT                                 
     2     -7.4439781     23  2.400                                             
     2     -8.8045607     23  2.400                                             
     0     -4.4044681     23  2.400                                             
     0      1.9520038     23  2.400                                             
     1     -1.3605826     23  2.500                                             
     1     27.2116520     23  2.500                                             
     3     -4.0817478     23  2.400                                             
  local pseudopotential read in
  partial core-charges read in
  partial kinetic energy density read in
  atomic valenz-charges read in
  non local Contribution for L=           2  read in
    real space projection operators read in
  non local Contribution for L=           2  read in
    real space projection operators read in
  non local Contribution for L=           0  read in
    real space projection operators read in
  non local Contribution for L=           0  read in
    real space projection operators read in
  non local Contribution for L=           1  read in
    real space projection operators read in
  non local Contribution for L=           1  read in
    real space projection operators read in
    PAW grid and wavefunctions read in
 
   number of l-projection  operators is LMAX  =           6
   number of lm-projection operators is LMMAX =          18
 
 POTCAR:    PAW_PBE H 15Jun2001                   
   VRHFIN =H: ultrasoft test                                                    
   LEXCH  = PE                                                                  
   EATOM  =    12.4884 eV,    0.9179 Ry                                         
                                                                                
   TITEL  = PAW_PBE H 15Jun2001                                                 
   LULTRA =        F    use ultrasoft PP ?                                      
   IUNSCR =        0    unscreen: 0-lin 1-nonlin 2-no                           
   RPACOR =    0.000    partial core radius                                     
   POMASS =    1.000; ZVAL   =    1.000    mass and valenz                      
   RCORE  =    1.100    outmost cutoff radius                                   
   RWIGS  =    0.700; RWIGS  =    0.370    wigner-seitz radius (au A)           
   ENMAX  =  250.000; ENMIN  =  200.000 eV                                      
   RCLOC  =    0.701    cutoff for local pot                                    
   LCOR   =        T    correct aug charges                                     
   LPAW   =        T    paw PP                                                  
   EAUG   =  400.000                                                            
   RMAX   =    1.123    core radius for proj-oper                               
   RAUG   =    1.200    factor for augmentation sphere                          
   RDEP   =    1.112    radius for radial grids                                 
   RDEPT  =    0.926    core radius for aug-charge                              
                                                                                
   Atomic configuration                                                         
    2 entries                                                                   
     n  l   j            E        occ.                                          
     1  0  0.50        -6.4927   1.0000                                         
     2  1  0.50        -3.4015   0.0000                                         
   Description                                                                  
     l       E           TYP  RCUT    TYP  RCUT                                 
     0     -6.4927494     23  1.100                                             
     0      6.8029130     23  1.100                                             
     1     -4.0817478     23  1.100                                             
  local pseudopotential read in
  atomic valenz-charges read in
  non local Contribution for L=           0  read in
    real space projection operators read in
  non local Contribution for L=           0  read in
    real space projection operators read in
  non local Contribution for L=           1  read in
    real space projection operators read in
    PAW grid and wavefunctions read in
 
   number of l-projection  operators is LMAX  =           3
   number of lm-projection operators is LMMAX =           5
 
 Optimization of the real space projectors (new method)

 maximal supplied QI-value         = 24.76
 optimisation between [QCUT,QGAM] = [ 10.15, 20.30] = [ 28.85,115.39] Ry 
 Optimized for a Real-space Cutoff    1.38 Angstroem

   l    n(q)    QCUT    max X(q) W(low)/X(q) W(high)/X(q)  e(spline) 
   0      8    10.150    20.381    0.22E-03    0.32E-03    0.29E-06
   0      8    10.150    15.268    0.23E-03    0.35E-03    0.30E-06
   1      8    10.150     5.964    0.46E-03    0.53E-03    0.21E-06
   1      8    10.150     5.382    0.38E-03    0.45E-03    0.19E-06
 Optimization of the real space projectors (new method)

 maximal supplied QI-value         = 13.98
 optimisation between [QCUT,QGAM] = [ 10.21, 20.42] = [ 29.18,116.73] Ry 
 Optimized for a Real-space Cutoff    1.60 Angstroem

   l    n(q)    QCUT    max X(q) W(low)/X(q) W(high)/X(q)  e(spline) 
   0     10    10.208     8.553    0.15E-04    0.13E-04    0.11E-06
   0     10    10.208     8.106    0.21E-04    0.28E-04    0.22E-06
   1      9    10.208     4.160    0.20E-04    0.76E-05    0.67E-07
   1      9    10.208     3.597    0.58E-04    0.51E-04    0.14E-06
   2      9    10.208     8.183    0.30E-03    0.67E-03    0.59E-06
   2      9    10.208     6.077    0.21E-03    0.46E-03    0.42E-06
   3      8    10.208   116.013    0.39E-03    0.13E-03    0.16E-06
   3      8    10.208   108.937    0.39E-03    0.14E-03    0.16E-06
 Optimization of the real space projectors (new method)

 maximal supplied QI-value         = 15.12
 optimisation between [QCUT,QGAM] = [ 10.13, 20.41] = [ 28.73,116.64] Ry 
 Optimized for a Real-space Cutoff    1.51 Angstroem

   l    n(q)    QCUT    max X(q) W(low)/X(q) W(high)/X(q)  e(spline) 
   2      8    10.129    53.897    0.29E-03    0.16E-03    0.95E-07
   2      8    10.129    52.416    0.29E-03    0.17E-03    0.97E-07
   0      9    10.129   122.045    0.59E-04    0.96E-05    0.73E-07
   0      9    10.129    73.629    0.57E-04    0.96E-05    0.70E-07
   1      9    10.129    15.255    0.14E-03    0.20E-04    0.11E-06
   1      9    10.129     9.562    0.11E-03    0.14E-04    0.94E-07
 Optimization of the real space projectors (new method)

 maximal supplied QI-value         = 34.20
 optimisation between [QCUT,QGAM] = [  9.92, 20.18] = [ 27.55,114.04] Ry 
 Optimized for a Real-space Cutoff    1.26 Angstroem

   l    n(q)    QCUT    max X(q) W(low)/X(q) W(high)/X(q)  e(spline) 
   0      8     9.919    19.460    0.50E-03    0.23E-03    0.29E-06
   0      8     9.919    12.209    0.48E-03    0.23E-03    0.28E-06
   1      7     9.919     4.655    0.17E-03    0.75E-03    0.30E-06
  PAW_PBE O 08Apr2002                   :
 energy of atom  1       EATOM= -432.3788
 kinetic energy error for atom=    0.1156 (will be added to EATOM!!)
  PAW_PBE Ce 23Dec2003                  :
 energy of atom  2       EATOM=-1063.0861
 kinetic energy error for atom=    0.0451 (will be added to EATOM!!)
  PAW_PBE Ag 02Apr2005                  :
 energy of atom  3       EATOM=-1037.2675
 kinetic energy error for atom=    0.0091 (will be added to EATOM!!)
  PAW_PBE H 15Jun2001                   :
 energy of atom  4       EATOM=  -12.4884
 kinetic energy error for atom=    0.0098 (will be added to EATOM!!)
 
 
 POSCAR: CeO2_111_Ag                             
  positions in direct lattice
  velocities in cartesian coordinates
 exchange correlation table for  LEXCH =        8
   RHO(1)=    0.500       N(1)  =     2000
   RHO(2)=  100.500       N(2)  =     4000
 


--------------------------------------------------------------------------------------------------------


 ion  position               nearest neighbor table
   1  0.282  0.032  0.177-  73 2.35  76 2.35  57 2.37  59 2.40
   2  0.068  0.257  0.358-  55 2.34  64 2.36  56 2.39  61 2.42
   3  0.170  0.143  0.000-  66 2.34  57 2.34  63 2.34
   4  0.283  0.033  0.450-  55 2.32  58 2.33  72 2.37
   5  0.176  0.143  0.272-  59 2.34  55 2.35  73 2.37  56 2.41
   6  0.059  0.254  0.088-  71 2.34  66 2.34  63 2.34  56 2.42
   7  0.615  0.032  0.178-  76 2.35  62 2.35  79 2.36  60 2.39
   8  0.402  0.269  0.367-  81 2.37  58 2.37  55 2.38  59 2.54
   9  0.504  0.143  0.000-  57 2.34  68 2.34  60 2.34
  10  0.616  0.030  0.447-  61 2.35  75 2.35  58 2.36
  11  0.501  0.143  0.271-  59 2.34  58 2.36  76 2.37  62 2.40
  12  0.393  0.254  0.088-  66 2.34  57 2.34  68 2.34  59 2.44
  13  0.949  0.032  0.178-  73 2.35  56 2.35  79 2.36  63 2.40
  14  0.723  0.257  0.358-  58 2.34  69 2.36  62 2.39  61 2.42
  15  0.837  0.143  0.000-  63 2.34  71 2.34  60 2.34
  16  0.948  0.030  0.448-  61 2.34  78 2.36  55 2.36
  17  0.839  0.145  0.272-  61 2.34  56 2.37  62 2.37  79 2.39
  18  0.726  0.254  0.088-  68 2.34  71 2.34  60 2.34  62 2.42
  19  0.277  0.363  0.177-  56 2.31  67 2.37  66 2.37  59 2.37
  20  0.061  0.590  0.357-  69 2.32  64 2.32  72 2.34  65 2.41
  21  0.170  0.476  0.000-  71 2.34  66 2.34  74 2.34
  22  0.235  0.343  0.477-  83 0.97  55 2.44  64 2.45
  23  0.169  0.477  0.269-  65 2.34  56 2.35  67 2.38  64 2.39
  24  0.059  0.587  0.088-  74 2.34  71 2.34  80 2.34  65 2.39
  25  0.618  0.363  0.177-  62 2.31  70 2.36  59 2.37  68 2.37
  26  0.384  0.582  0.359-  64 2.27  81 2.28  75 2.37  67 2.43
  27  0.504  0.476  0.000-  66 2.34  77 2.34  68 2.34
  28  0.644  0.338  0.480-  82 0.97  58 2.44  69 2.45
  29  0.505  0.478  0.257-  59 2.26  70 2.27  67 2.27  81 2.58
  30  0.393  0.587  0.088-  66 2.34  74 2.34  77 2.34  67 2.41
  31  0.948  0.364  0.177-  62 2.35  56 2.36  65 2.36  71 2.37
  32  0.730  0.580  0.360-  81 2.26  69 2.27  78 2.38  70 2.45
  33  0.837  0.476  0.000-  71 2.34  68 2.34  80 2.34
  34  0.950  0.366  0.447-  69 2.32  64 2.32  61 2.36
  35  0.840  0.477  0.269-  65 2.34  62 2.35  70 2.38  69 2.40
  36  0.726  0.587  0.088-  68 2.34  80 2.34  77 2.34  70 2.41
  37  0.282  0.700  0.177-  76 2.35  65 2.35  74 2.37  67 2.38
  38  0.060  0.920  0.358-  72 2.34  55 2.34  78 2.36  73 2.40
  39  0.170  0.810  0.000-  57 2.34  80 2.34  74 2.34
  40  0.280  0.699  0.451-  72 2.34  64 2.34  75 2.37
  41  0.171  0.810  0.269-  73 2.35  76 2.35  65 2.37  72 2.39
  42  0.059  0.921  0.088-  57 2.34  80 2.34  63 2.34  73 2.41
  43  0.618  0.704  0.176-  79 2.31  77 2.36  67 2.38  70 2.39
  44  0.392  0.920  0.358-  58 2.34  72 2.34  75 2.36  76 2.40
  45  0.504  0.810  0.000-  74 2.34  60 2.34  77 2.34
  46  0.618  0.703  0.450-  81 2.19  78 2.33  75 2.34
  47  0.503  0.808  0.271-  75 2.35  67 2.36  79 2.37  76 2.38
  48  0.393  0.921  0.088-  74 2.34  57 2.34  60 2.34  76 2.41
  49  0.949  0.699  0.177-  73 2.35  65 2.35  80 2.37  70 2.38
  50  0.727  0.920  0.357-  61 2.36  78 2.37  75 2.37  79 2.38
  51  0.837  0.810  0.000-  63 2.34  80 2.34  77 2.34
  52  0.952  0.699  0.451-  72 2.34  69 2.34  78 2.37
  53  0.837  0.807  0.271-  78 2.35  70 2.36  73 2.38  79 2.38
  54  0.726  0.921  0.088-  60 2.34  77 2.34  63 2.34  79 2.42
  55  0.172  0.141  0.404-   4 2.32   2 2.34  38 2.34   5 2.35  16 2.36   8 2.38  22 2.44
  56  0.061  0.255  0.223-  19 2.31  23 2.35  13 2.35  31 2.36  17 2.37   2 2.39   5 2.41   6 2.42

  57  0.282  0.032  0.044-   9 2.34  39 2.34  42 2.34   3 2.34  12 2.34  48 2.34   1 2.37
  58  0.503  0.141  0.404-   4 2.33  14 2.34  44 2.34  11 2.36  10 2.36   8 2.37  28 2.44
  59  0.395  0.258  0.225-  29 2.26   5 2.34  11 2.34  25 2.37  19 2.37   1 2.40  12 2.44   8 2.54

  60  0.615  0.032  0.044-  54 2.34  45 2.34  15 2.34  18 2.34  48 2.34   9 2.34   7 2.39
  61  0.838  0.142  0.403-  17 2.34  16 2.34  10 2.35  50 2.36  34 2.36   2 2.42  14 2.42
  62  0.727  0.255  0.223-  25 2.31  35 2.35  31 2.35   7 2.35  17 2.37  14 2.39  11 2.40  18 2.42

  63  0.948  0.032  0.044-  15 2.34  51 2.34   3 2.34  54 2.34   6 2.34  42 2.34  13 2.40
  64  0.170  0.480  0.403-  26 2.27  20 2.32  34 2.32  40 2.34   2 2.36  23 2.39  22 2.45
  65  0.060  0.588  0.222-  35 2.34  23 2.34  37 2.35  49 2.35  31 2.36  41 2.37  24 2.39  20 2.41

  66  0.282  0.365  0.044-  12 2.34  27 2.34   3 2.34   6 2.34  21 2.34  30 2.34  19 2.37
  67  0.393  0.586  0.223-  29 2.27  47 2.36  19 2.37  23 2.38  37 2.38  43 2.38  30 2.41  26 2.43

  68  0.615  0.365  0.044-  18 2.34   9 2.34  33 2.34  36 2.34  12 2.34  27 2.34  25 2.37
  69  0.844  0.479  0.403-  32 2.27  20 2.32  34 2.32  52 2.34  14 2.36  35 2.40  28 2.45
  70  0.725  0.586  0.223-  29 2.27  53 2.36  25 2.36  49 2.38  35 2.38  43 2.39  36 2.41  32 2.45

  71  0.948  0.365  0.044-  33 2.34   6 2.34  15 2.34  21 2.34  18 2.34  24 2.34  31 2.37
  72  0.171  0.810  0.404-  20 2.34  40 2.34  52 2.34  44 2.34  38 2.34   4 2.37  41 2.39
  73  0.061  0.921  0.223-   1 2.35  41 2.35  49 2.35  13 2.35   5 2.37  53 2.38  38 2.40  42 2.41

  74  0.282  0.698  0.044-  45 2.34  24 2.34  48 2.34  39 2.34  30 2.34  21 2.34  37 2.37
  75  0.503  0.807  0.402-  46 2.34  47 2.35  10 2.35  44 2.36  50 2.37  26 2.37  40 2.37
  76  0.392  0.921  0.223-   1 2.35  37 2.35  41 2.35   7 2.35  11 2.37  47 2.38  44 2.40  48 2.41

  77  0.615  0.698  0.044-  54 2.34  51 2.34  36 2.34  27 2.34  30 2.34  45 2.34  43 2.36
  78  0.837  0.807  0.403-  46 2.33  53 2.35  38 2.36  16 2.36  50 2.37  52 2.37  32 2.38
  79  0.726  0.920  0.223-  43 2.31  13 2.36   7 2.36  47 2.37  50 2.38  53 2.38  17 2.39  54 2.42

  80  0.948  0.698  0.044-  39 2.34  51 2.34  42 2.34  36 2.34  33 2.34  24 2.34  49 2.37
  81  0.517  0.500  0.401-  46 2.19  32 2.26  26 2.28   8 2.37  29 2.58
  82  0.621  0.364  0.527-  28 0.97
  83  0.283  0.368  0.525-  22 0.97
 
  LATTYP: Found a hexagonal cell.
 ALAT       =    11.4785003662
 C/A-ratio  =     1.5516051738
  
  Lattice vectors:
  
 A1 = (  11.4785003662,   0.0000000000,   0.0000000000)
 A2 = (  -5.7392501831,   9.9406729145,   0.0000000000)
 A3 = (   0.0000000000,   0.0000000000,  17.8101005554)


Analysis of symmetry for initial positions (statically):
=====================================================================
 Subroutine PRICEL returns:
 Original cell was already a primitive cell.
 

 Routine SETGRP: Setting up the symmetry group for a 
 hexagonal supercell.


 Subroutine GETGRP returns: Found  1 space group operations
 (whereof  1 operations were pure point group operations)
 out of a pool of 24 trial point group operations.


The static configuration has the point symmetry C_1 .


Analysis of symmetry for dynamics (positions and initial velocities):
=====================================================================
 Subroutine PRICEL returns:
 Original cell was already a primitive cell.
 

 Routine SETGRP: Setting up the symmetry group for a 
 hexagonal supercell.


 Subroutine GETGRP returns: Found  1 space group operations
 (whereof  1 operations were pure point group operations)
 out of a pool of 24 trial point group operations.


The dynamic configuration has the point symmetry C_1 .


Analysis of constrained symmetry for selective dynamics:
=====================================================================
 Subroutine PRICEL returns:
 Original cell was already a primitive cell.
 

 Routine SETGRP: Setting up the symmetry group for a 
 hexagonal supercell.


 Subroutine GETGRP returns: Found  1 space group operations
 (whereof  1 operations were pure point group operations)
 out of a pool of 24 trial point group operations.


The constrained configuration has the point symmetry C_1 .


Analysis of structural, dynamic, and magnetic symmetry:
=====================================================================
 Subroutine PRICEL returns:
 Original cell was already a primitive cell.
 

 Routine SETGRP: Setting up the symmetry group for a 
 hexagonal supercell.


 Subroutine GETGRP returns: Found  1 space group operations
 (whereof  1 operations were pure point group operations)
 out of a pool of 24 trial point group operations.


The magnetic configuration has the point symmetry C_1 .


 Subroutine INISYM returns: Found  1 space group operations
 (whereof  1 operations are pure point group operations),
 and found     1 'primitive' translations

 
 
 KPOINTS: mesh auto                               

Automatic generation of k-mesh.
Space group operators:
 irot       det(A)        alpha          n_x          n_y          n_z        tau_x        tau_y        tau_z
    1     1.000000     0.000001     1.000000     0.000000     0.000000     0.000000     0.000000     0.000000
 
 Subroutine IBZKPT returns following result:
 ===========================================
 
 Found      4 irreducible k-points:
 
 Following reciprocal coordinates:
            Coordinates               Weight
  0.000000  0.000000  0.000000      1.000000
  0.500000 -0.000000  0.000000      1.000000
  0.000000  0.500000  0.000000      1.000000
  0.500000  0.500000  0.000000      1.000000
 
 Following cartesian coordinates:
            Coordinates               Weight
  0.000000  0.000000  0.000000      1.000000
  0.043560  0.025149  0.000000      1.000000
  0.000000  0.050298  0.000000      1.000000
  0.043560  0.075448  0.000000      1.000000
 


--------------------------------------------------------------------------------------------------------




 Dimension of arrays:
   k-points           NKPTS =      4   k-points in BZ     NKDIM =      4   number of bands    NBANDS=    432
   number of dos      NEDOS =    301   number of ions     NIONS =     83
   non local maximal  LDIM  =      8   non local SUM 2l+1 LMDIM =     32
   total plane-waves  NPLWV = 282240
   max r-space proj   IRMAX =   2434   max aug-charges    IRDMAX=   7519
   dimension x,y,z NGX =    56 NGY =   56 NGZ =   90
   dimension x,y,z NGXF=   112 NGYF=  112 NGZF=  180
   support grid    NGXF=   112 NGYF=  112 NGZF=  180
   ions per type =              54  26   1   2
   NGX,Y,Z   is equivalent  to a cutoff of   8.11,  8.11,  8.40 a.u.
   NGXF,Y,Z  is equivalent  to a cutoff of  16.22, 16.22, 16.80 a.u.

 SYSTEM =  CeO2                                    
 POSCAR =  CeO2_111_Ag                             

 Startparameter for this run:
   NWRITE =      2    write-flag & timer
   PREC   = normal    normal or accurate (medium, high low for compatibility)
   ISTART =      0    job   : 0-new  1-cont  2-samecut
   ICHARG =      2    charge: 1-file 2-atom 10-const
   ISPIN  =      2    spin polarized calculation?
   LNONCOLLINEAR =      F non collinear calculations
   LSORBIT =      F    spin-orbit coupling
   INIWAV =      1    electr: 0-lowe 1-rand  2-diag
   LASPH  =      F    aspherical Exc in radial PAW
   METAGGA=      F    non-selfconsistent MetaGGA calc.

 Electronic Relaxation 1
   ENCUT  =  400.0 eV  29.40 Ry    5.42 a.u.  18.72 18.72 29.04*2*pi/ulx,y,z
   ENINI  =  400.0     initial cutoff
   ENAUG  =  605.4 eV  augmentation charge cutoff
   NELM   =    500;   NELMIN=  8; NELMDL=  0     # of ELM steps 
   EDIFF  = 0.1E-03   stopping-criterion for ELM
   LREAL  =      T    real-space projection
   NLSPLINE    = F    spline interpolate recip. space projectors
   LCOMPAT=      F    compatible to vasp.4.4
   GGA_COMPAT  = T    GGA compatible to vasp.4.4-vasp.4.6
   LMAXPAW     = -100 max onsite density
   LMAXMIX     =    6 max onsite mixed and CHGCAR
   VOSKOWN=      0    Vosko Wilk Nusair interpolation
   ROPT   =   -0.00050  -0.00050  -0.00050  -0.00050
 Ionic relaxation
   EDIFFG = -.5E-01   stopping-criterion for IOM
   NSW    =      0    number of steps for IOM
   NBLOCK =      1;   KBLOCK =      1    inner block; outer block 
   IBRION =     -1    ionic relax: 0-MD 1-quasi-New 2-CG
   NFREE  =      1    steps in history (QN), initial steepest desc. (CG)
   ISIF   =      2    stress and relaxation
   IWAVPR =     10    prediction:  0-non 1-charg 2-wave 3-comb
   ISYM   =      2    0-nonsym 1-usesym 2-fastsym
   LCORR  =      T    Harris-Foulkes like correction to forces

   POTIM  = 0.3000    time-step for ionic-motion
   TEIN   =    0.0    initial temperature
   TEBEG  =    0.0;   TEEND  =   0.0 temperature during run
   SMASS  =  -3.00    Nose mass-parameter (am)
   estimated Nose-frequenzy (Omega)   =  0.10E-29 period in steps =****** mass=  -0.301E-26a.u.
   SCALEE = 1.0000    scale energy and forces
   NPACO  =    256;   APACO  = 16.0  distance and # of slots for P.C.
   PSTRESS=    0.0 pullay stress

  Mass of Ions in am
   POMASS =  16.00140.12107.87  1.00
  Ionic Valenz
   ZVAL   =   6.00 12.00 11.00  1.00
  Atomic Wigner-Seitz radii
   RWIGS  =  -1.00 -1.00 -1.00 -1.00
  virtual crystal weights 
   VCA    =   1.00  1.00  1.00  1.00
   NELECT =     649.0000    total number of electrons
   NUPDOWN=      -1.0000    fix difference up-down

 DOS related values:
   EMIN   =  10.00;   EMAX   =-10.00  energy-range for DOS
   EFERMI =   0.00
   ISMEAR =     0;   SIGMA  =   0.05  broadening in eV -4-tet -1-fermi 0-gaus

 Electronic relaxation 2 (details)
   IALGO  =     68    algorithm
   LDIAG  =      T    sub-space diagonalisation (order eigenvalues)
   LSUBROT=      F    optimize rotation matrix (better conditioning)
   TURBO    =      0    0=normal 1=particle mesh
   IRESTART =      0    0=no restart 2=restart with 2 vectors
   NREBOOT  =      0    no. of reboots
   NMIN     =      0    reboot dimension
   EREF     =   0.00    reference energy to select bands
   IMIX   =      4    mixing-type and parameters
     AMIX     =   0.40;   BMIX     =  1.00
     AMIX_MAG =   1.60;   BMIX_MAG =  1.00
     AMIN     =   0.10
     WC   =   100.;   INIMIX=   1;  MIXPRE=   1;  MAXMIX= -45

 Intra band minimization:
   WEIMIN = 0.0000     energy-eigenvalue tresh-hold
   EBREAK =  0.58E-07  absolut break condition
   DEPER  =   0.30     relativ break condition  

   TIME   =   0.40     timestep for ELM

  volume/ion in A,a.u.               =      24.48       165.23
  Fermi-wavevector in a.u.,A,eV,Ry     =   1.119010  2.114622 17.036989  1.252183
  Thomas-Fermi vector in A             =   2.255646
 
 Write flags
   LWAVE        =      F    write WAVECAR
   LDOWNSAMPLE  =      F    k-point downsampling of WAVECAR
   LCHARG       =      T    write CHGCAR
   LVTOT        =      F    write LOCPOT, total local potential
   LVHAR        =      F    write LOCPOT, Hartree potential only
   LELF         =      T    write electronic localiz. function (ELF)
   LORBIT       =      0    0 simple, 1 ext, 2 COOP (PROOUT), +10 PAW based schemes


 Dipole corrections
   LMONO  =      F    monopole corrections only (constant potential shift)
   LDIPOL =      F    correct potential (dipole corrections)
   IDIPOL =      0    1-x, 2-y, 3-z, 4-all directions 
   EPSILON=  1.0000000 bulk dielectric constant

 LDA+U is selected, type is set to LDAUTYPE =  2
   angular momentum for each species LDAUL =    -1    3   -1   -1
   U (eV)           for each species LDAUU =   0.0  5.0  0.0  0.0
   J (eV)           for each species LDAUJ =   0.0  0.0  0.0  0.0
 Exchange correlation treatment:
   GGA     =    --    GGA type
   LEXCH   =     8    internal setting for exchange type
   VOSKOWN=      0    Vosko Wilk Nusair interpolation
   LHFCALC =     F    Hartree Fock is set to
   LHFONE  =     F    Hartree Fock one center treatment
   AEXX    =    0.0000 exact exchange contribution

 Linear response parameters
   LEPSILON=     F    determine dielectric tensor
   LRPA    =     F    only Hartree local field effects (RPA)
   LNABLA  =     F    use nabla operator in PAW spheres
   LVEL    =     F    velocity operator in full k-point grid
   LINTERFAST=   F  fast interpolation
   KINTER  =     0    interpolate to denser k-point grid
   CSHIFT  =0.1000    complex shift for real part using Kramers Kronig
   OMEGAMAX=  -1.0    maximum frequency
   DEG_THRESHOLD= 0.2000000E-02 threshold for treating states as degnerate
   RTIME   =   -0.100 relaxation time in fs
  (WPLASMAI=    0.000 imaginary part of plasma frequency in eV, 0.658/RTIME)
   DFIELD  = 0.0000000 0.0000000 0.0000000 field for delta impulse in time
 
 Orbital magnetization related:
   ORBITALMAG=     F  switch on orbital magnetization
   LCHIMAG   =     F  perturbation theory with respect to B field
   DQ        =  0.001000  dq finite difference perturbation B field
   LLRAUG    =     F  two centre corrections for induced B field



--------------------------------------------------------------------------------------------------------


 Static calculation
 charge density and potential will be updated during run
 spin polarized calculation
 RMM-DIIS sequential band-by-band and
  variant of blocked Davidson during initial phase
 perform sub-space diagonalisation
    before iterative eigenvector-optimisation
 modified Broyden-mixing scheme, WC =      100.0
 initial mixing is a Kerker type mixing with AMIX =  0.4000 and BMIX =      1.0000
 Hartree-type preconditioning will be used
 using additional bands          107
 real space projection scheme for non local part
 use partial core corrections
 calculate Harris-corrections to forces 
   (improved forces if not selfconsistent)
 use gradient corrections 
 use of overlap-Matrix (Vanderbilt PP)
 Gauss-broadening in eV      SIGMA  =   0.05


--------------------------------------------------------------------------------------------------------


  energy-cutoff  :      400.00
  volume of cell :     2032.20
      direct lattice vectors                 reciprocal lattice vectors
    11.478500366  0.000000000  0.000000000     0.087119394  0.050298406  0.000000000
    -5.739250183  9.940672915  0.000000000     0.000000000  0.100596812  0.000000000
     0.000000000  0.000000000 17.810100555     0.000000000  0.000000000  0.056147914

  length of vectors
    11.478500366 11.478500366 17.810100555     0.100596812  0.100596812  0.056147914


 
 k-points in units of 2pi/SCALE and weight: mesh auto                               
   0.00000000  0.00000000  0.00000000       0.250
   0.04355970  0.02514920  0.00000000       0.250
   0.00000000  0.05029841  0.00000000       0.250
   0.04355970  0.07544761  0.00000000       0.250
 
 k-points in reciprocal lattice and weights: mesh auto                               
   0.00000000  0.00000000  0.00000000       0.250
   0.50000000 -0.00000000  0.00000000       0.250
   0.00000000  0.50000000  0.00000000       0.250
   0.50000000  0.50000000  0.00000000       0.250
 
 position of ions in fractional coordinates (direct lattice) 
   0.28189846  0.03171267  0.17699774
   0.06767674  0.25670253  0.35766640
   0.17047000  0.14285000  0.00000000
   0.28280838  0.03269686  0.44981315
   0.17580463  0.14306340  0.27168542
   0.05936000  0.25396001  0.08770000
   0.61523315  0.03213175  0.17828751
   0.40231259  0.26932853  0.36718100
   0.50379997  0.14285000  0.00000000
   0.61564670  0.02955491  0.44748499
   0.50073548  0.14312694  0.27147300
   0.39269000  0.25396001  0.08770000
   0.94927533  0.03201944  0.17846441
   0.72284288  0.25665549  0.35779682
   0.83714002  0.14285000  0.00000000
   0.94809173  0.03048270  0.44782311
   0.83886735  0.14482667  0.27179495
   0.72602999  0.25396001  0.08770000
   0.27741663  0.36270161  0.17690368
   0.06127221  0.58982255  0.35697437
   0.17047000  0.47617999  0.00000000
   0.23518201  0.34284121  0.47739206
   0.16901074  0.47697022  0.26864052
   0.05936000  0.58728999  0.08770000
   0.61759290  0.36266224  0.17684657
   0.38423155  0.58161854  0.35908959
   0.50379997  0.47617999  0.00000000
   0.64441348  0.33835322  0.47965487
   0.50524315  0.47802383  0.25681192
   0.39269000  0.58728999  0.08770000
   0.94815823  0.36384248  0.17678178
   0.72962850  0.57977210  0.36007337
   0.83714002  0.47617999  0.00000000
   0.95021395  0.36562620  0.44682260
   0.84026696  0.47670935  0.26871299
   0.72602999  0.58728999  0.08770000
   0.28215442  0.69950901  0.17668290
   0.06043814  0.91987539  0.35777534
   0.17047000  0.80952001  0.00000000
   0.28029499  0.69914109  0.45054009
   0.17108631  0.81007527  0.26930819
   0.05936000  0.92062998  0.08770000
   0.61790038  0.70369273  0.17635590
   0.39211405  0.91991064  0.35768184
   0.50379997  0.80952001  0.00000000
   0.61834756  0.70294738  0.44952780
   0.50291317  0.80779375  0.27054129
   0.39269000  0.92062998  0.08770000
   0.94915588  0.69935034  0.17668905
   0.72682395  0.91993298  0.35685651
   0.83714002  0.80952001  0.00000000
   0.95174096  0.69891557  0.45081750
   0.83705245  0.80675597  0.27081520
   0.72602999  0.92062998  0.08770000
   0.17223459  0.14085966  0.40369543
   0.06081768  0.25476564  0.22348264
   0.28158000  0.03174000  0.04385000
   0.50260161  0.14053107  0.40379657
   0.39540017  0.25782070  0.22457117
   0.61492002  0.03174000  0.04385000
   0.83806240  0.14188849  0.40315511
   0.72667795  0.25466330  0.22347204
   0.94825000  0.03174000  0.04385000
   0.16969703  0.47989447  0.40271094
   0.05985341  0.58763593  0.22173362
   0.28158000  0.36506998  0.04385000
   0.39336895  0.58621949  0.22274965
   0.61492002  0.36506998  0.04385000
   0.84360108  0.47885756  0.40342871
   0.72494342  0.58577323  0.22283787
   0.94825000  0.36506998  0.04385000
   0.17118808  0.80961586  0.40355169
   0.06081775  0.92072403  0.22298260
   0.28158000  0.69840997  0.04385000
   0.50304614  0.80722687  0.40239380
   0.39236711  0.92096294  0.22284003
   0.61492002  0.69840997  0.04385000
   0.83735873  0.80702631  0.40279881
   0.72634815  0.92021800  0.22337444
   0.94825000  0.69840997  0.04385000
   0.51696338  0.49976955  0.40139069
   0.62086536  0.36409574  0.52678505
   0.28277502  0.36847326  0.52504810
 
 position of ions in cartesian coordinates  (Angst):
   3.05376461  0.31524527  3.15234760
  -0.69645260  2.55179590  6.37007459
   1.13688807  1.42002510  0.00000000
   3.05856060  0.32502880  8.01121743
   1.19689685  1.42214650  4.83874458
  -0.77617626  2.52453342  1.56194585
   6.87754174  0.31941121  3.17531842
   3.07220144  2.67730684  6.53953048
   4.96301633  1.42002510  0.00000000
   6.89707782  0.29379567  7.96975265
   4.92625107  1.42277805  4.83496135
   3.04995229  2.52453342  1.56194585
  10.71248969  0.31829473  3.17846908
   6.82414225  2.55132826  6.37239739
   8.78926020  1.42002510  0.00000000
  10.70772341  0.30301856  7.97577467
   8.79774274  1.43967455  4.84069541
   6.87619548  2.52453342  1.56194585
   1.10269155  3.60549808  3.15067239
  -2.68182610  5.86323309  6.35774944
  -0.77617613  4.73354950  0.00000000
   0.73188532  3.40807229  8.50240068
  -0.79746154  4.74140494  4.78451475
  -2.68924038  5.83805769  1.56194585
   5.00763097  3.60510675  3.14965524
   1.07234770  5.78167967  6.39542171
   3.04995212  4.73354950  0.00000000
   5.45500654  3.36345872  8.54270139
   3.05593536  4.75187852  4.57384604
   1.13688817  5.83805769  1.56194585
   8.79525154  3.61683906  3.14850130
   5.04758382  5.76332481  6.41294289
   6.87619599  4.73354950  0.00000000
   8.80861101  3.63457042  7.95795552
   6.90905039  4.73881172  4.78580532
   4.96313135  5.83805769  1.56194585
  -0.77594756  6.95359027  3.14674025
  -4.58565575  9.14418035  6.37201475
  -2.68929790  8.04717360  0.00000000
  -0.79517954  6.94993291  8.02416435
  -2.68541038  8.05269332  4.79640587
  -4.60236198  9.15168149  1.56194585
   3.05390114  6.99517929  3.14091631
  -0.77871604  9.14453075  6.37034946
   1.13683035  8.04717360  0.00000000
   3.06331189  6.98776995  8.00613531
   1.13655856  8.03001348  4.81836753
  -0.77623343  9.15168149  1.56194585
   6.88113958  6.95201298  3.14684980
   3.06312346  9.14475287  6.35565027
   4.96307423  8.04717360  0.00000000
   6.91330763  6.94769109  8.02910505
   4.97793253  8.01969718  4.82324601
   3.05000976  9.15168149  1.56194585
   1.16856598  1.40023980  7.18985616
  -0.76406802  2.53254193  3.98024823
   3.04995235  0.31551695  0.78097293
   4.96256985  1.39697338  7.19165758
   3.05890346  2.56291125  3.99963507
   6.87619588  0.31551695  0.78097293
   8.80536600  1.41046711  7.18023302
   6.87959673  2.53152454  3.98005947
  10.70232413  0.31551695  0.78097293
  -0.80636698  4.77047395  7.17232229
  -2.68556227  5.84149660  3.94909807
   1.13688817  3.62904131  0.78097293
   1.15082534  5.82741625  3.96719364
   4.96313170  3.62904131  0.78097293
   6.93499192  4.76016639  7.18510595
   4.95936416  5.82298011  3.96876484
   8.78925995  3.62904131  0.78097293
  -2.68160545  8.04812640  7.18729613
  -4.58616894  9.15261640  3.97134245
  -0.77623343  6.94266512  0.78097293
   1.14133837  8.02437832  7.16667409
  -0.78185064  9.15499131  3.96880329
   3.05001010  6.94266512  0.78097293
   4.97989657  8.02238457  7.17388722
   3.05602620  9.14758614  3.97832120
   6.87613835  6.94266512  0.78097293
   3.06566184  4.96804562  7.14880852
   5.03696666  3.61935668  9.38209477
   1.13107296  3.66287217  9.35115953
 


--------------------------------------------------------------------------------------------------------


 k-point  1 :   0.0000 0.0000 0.0000  plane waves:   37037
 k-point  2 :   0.5000-0.0000 0.0000  plane waves:   36850
 k-point  3 :   0.0000 0.5000 0.0000  plane waves:   36850
 k-point  4 :   0.5000 0.5000 0.0000  plane waves:   36850

 maximum and minimum number of plane-waves per node :      4132     4070

 maximum number of plane-waves:     37037
 maximum index in each direction: 
   IXMAX=   18   IYMAX=   18   IZMAX=   29
   IXMIN=  -19   IYMIN=  -19   IZMIN=  -29


 real space projection operators:
  total allocation   :      20402.69 KBytes
  max/ min on nodes  :       2569.05       2161.20


 parallel 3D FFT for wavefunctions:
    minimum data exchange during FFTs selected (reduces bandwidth)
 parallel 3D FFT for charge:
    minimum data exchange during FFTs selected (reduces bandwidth)


 total amount of memory used by VASP MPI-rank0   110801. kBytes
=======================================================================

   base      :      30000. kBytes
   nonlr-proj:       6559. kBytes
   fftplans  :       3666. kBytes
   grid      :      10648. kBytes
   one-center:        983. kBytes
   wavefun   :      58945. kBytes
 
     INWAV:  cpu time    0.0000: real time    0.0002
 Broyden mixing: mesh for mixing (old mesh)
   NGX = 37   NGY = 37   NGZ = 59
  (NGX  =112   NGY  =112   NGZ  =180)
  gives a total of  80771 points

 initial charge density was supplied:
 charge density of overlapping atoms calculated
 number of electron     649.0000000 magnetization      83.0000000
 keeping initial charge density in first step


--------------------------------------------------------------------------------------------------------


 Maximum index for non-local projection operator          414
 Maximum index for augmentation-charges          734 (set IRDMAX)


--------------------------------------------------------------------------------------------------------


 First call to EWALD:  gamma=   0.140
 Maximum number of real-space cells 3x 3x 2
 Maximum number of reciprocal cells 3x 3x 4

    FEWALD:  cpu time    0.0024: real time    0.0024


--------------------------------------- Iteration      1(   1)  ---------------------------------------


    POTLOK:  cpu time    0.0783: real time    0.0805
    SETDIJ:  cpu time    0.0160: real time    0.0161
     EDDAV:  cpu time   12.8675: real time   13.1515
       DOS:  cpu time    0.0021: real time    0.0021
    --------------------------------------------
      LOOP:  cpu time   12.9638: real time   13.2501

 eigenvalue-minimisations  :  6928
 total energy-change (2. order) : 0.1034203E+05  (-0.2204138E+05)
 number of electron     649.0000000 magnetization      83.0000000
 augmentation part      649.0000000 magnetization      83.0000000

 Free energy of the ion-electron system (eV)
  ---------------------------------------------------
  alpha Z        PSCENC =      1881.95730920
  Ewald energy   TEWEN  =     65293.71131872
  -Hartree energ DENC   =   -113935.17012120
  -exchange      EXHF   =         0.00000000
  -V(xc)+E(xc)   XCENC  =      1636.78254336
  PAW double counting   =     41833.36072478   -41249.31794842
  entropy T*S    EENTRO =        -0.03272042
  eigenvalues    EBANDS =      2837.24304166
  atomic energy  EATOM  =     52043.49464005
  Solvation  Ediel_sol  =         0.00000000
  ---------------------------------------------------
  free energy    TOTEN  =     10342.02878773 eV

  energy without entropy =    10342.06150815  energy(sigma->0) =    10342.04514794


--------------------------------------------------------------------------------------------------------




--------------------------------------- Iteration      1(   2)  ---------------------------------------


     EDDAV:  cpu time   14.0145: real time   14.0550
       DOS:  cpu time    0.0018: real time    0.0018
    --------------------------------------------
      LOOP:  cpu time   14.0163: real time   14.0568

 eigenvalue-minimisations  :  7760
 total energy-change (2. order) :-0.6841769E+04  (-0.6016160E+04)
 number of electron     649.0000000 magnetization      83.0000000
 augmentation part      649.0000000 magnetization      83.0000000

 Free energy of the ion-electron system (eV)
  ---------------------------------------------------
  alpha Z        PSCENC =      1881.95730920
  Ewald energy   TEWEN  =     65293.71131872
  -Hartree energ DENC   =   -113935.17012120
  -exchange      EXHF   =         0.00000000
  -V(xc)+E(xc)   XCENC  =      1636.78254336
  PAW double counting   =     41833.36072478   -41249.31794842
  entropy T*S    EENTRO =        -0.13741344
  eigenvalues    EBANDS =     -4004.42098351
  atomic energy  EATOM  =     52043.49464005
  Solvation  Ediel_sol  =         0.00000000
  ---------------------------------------------------
  free energy    TOTEN  =      3500.26006953 eV

  energy without entropy =     3500.39748298  energy(sigma->0) =     3500.32877625


--------------------------------------------------------------------------------------------------------




--------------------------------------- Iteration      1(   3)  ---------------------------------------


     EDDAV:  cpu time   15.4412: real time   15.4848
       DOS:  cpu time    0.0018: real time    0.0018
    --------------------------------------------
      LOOP:  cpu time   15.4429: real time   15.4865

 eigenvalue-minimisations  :  8776
 total energy-change (2. order) :-0.3422175E+04  (-0.3301945E+04)
 number of electron     649.0000000 magnetization      83.0000000
 augmentation part      649.0000000 magnetization      83.0000000

 Free energy of the ion-electron system (eV)
  ---------------------------------------------------
  alpha Z        PSCENC =      1881.95730920
  Ewald energy   TEWEN  =     65293.71131872
  -Hartree energ DENC   =   -113935.17012120
  -exchange      EXHF   =         0.00000000
  -V(xc)+E(xc)   XCENC  =      1636.78254336
  PAW double counting   =     41833.36072478   -41249.31794842
  entropy T*S    EENTRO =        -0.13761562
  eigenvalues    EBANDS =     -7426.59590200
  atomic energy  EATOM  =     52043.49464005
  Solvation  Ediel_sol  =         0.00000000
  ---------------------------------------------------
  free energy    TOTEN  =        78.08494887 eV

  energy without entropy =       78.22256449  energy(sigma->0) =       78.15375668


--------------------------------------------------------------------------------------------------------




--------------------------------------- Iteration      1(   4)  ---------------------------------------


     EDDAV:  cpu time   17.5663: real time   17.6226
       DOS:  cpu time    0.0007: real time    0.0007
    --------------------------------------------
      LOOP:  cpu time   17.5670: real time   17.6233

 eigenvalue-minimisations  : 10248
 total energy-change (2. order) :-0.8159181E+03  (-0.7669549E+03)
 number of electron     649.0000000 magnetization      83.0000000
 augmentation part      649.0000000 magnetization      83.0000000

 Free energy of the ion-electron system (eV)
  ---------------------------------------------------
  alpha Z        PSCENC =      1881.95730920
  Ewald energy   TEWEN  =     65293.71131872
  -Hartree energ DENC   =   -113935.17012120
  -exchange      EXHF   =         0.00000000
  -V(xc)+E(xc)   XCENC  =      1636.78254336
  PAW double counting   =     41833.36072478   -41249.31794842
  entropy T*S    EENTRO =        -0.00000000
  eigenvalues    EBANDS =     -8242.65157815
  atomic energy  EATOM  =     52043.49464005
  Solvation  Ediel_sol  =         0.00000000
  ---------------------------------------------------
  free energy    TOTEN  =      -737.83311166 eV

  energy without entropy =     -737.83311166  energy(sigma->0) =     -737.83311166


--------------------------------------------------------------------------------------------------------




--------------------------------------- Iteration      1(   5)  ---------------------------------------


     EDDAV:  cpu time   19.4009: real time   19.4579
       DOS:  cpu time    0.0008: real time    0.0008
    CHARGE:  cpu time    0.2119: real time    0.2124
    MIXING:  cpu time    0.0027: real time    0.0028
    --------------------------------------------
      LOOP:  cpu time   19.6162: real time   19.6739

 eigenvalue-minimisations  : 11528
 total energy-change (2. order) :-0.6610634E+02  (-0.6568937E+02)
 number of electron     649.0000441 magnetization      68.4783113
 augmentation part        2.4267698 magnetization      69.3207516

 Broyden mixing:
  rms(total) = 0.13365E+02    rms(broyden)= 0.13364E+02
  rms(prec ) = 0.13987E+02
  weight for this iteration     100.00

 Free energy of the ion-electron system (eV)
  ---------------------------------------------------
  alpha Z        PSCENC =      1881.95730920
  Ewald energy   TEWEN  =     65293.71131872
  -Hartree energ DENC   =   -113935.17012120
  -exchange      EXHF   =         0.00000000
  -V(xc)+E(xc)   XCENC  =      1636.78254336
  PAW double counting   =     41833.36072478   -41249.31794842
  entropy T*S    EENTRO =        -0.00000000
  eigenvalues    EBANDS =     -8308.75791680
  atomic energy  EATOM  =     52043.49464005
  Solvation  Ediel_sol  =         0.00000000
  ---------------------------------------------------
  free energy    TOTEN  =      -803.93945031 eV

  energy without entropy =     -803.93945031  energy(sigma->0) =     -803.93945031


--------------------------------------------------------------------------------------------------------




--------------------------------------- Iteration      1(   6)  ---------------------------------------


    POTLOK:  cpu time    0.0739: real time    0.0770
    SETDIJ:  cpu time    0.0154: real time    0.0154
    EDDIAG:  cpu time    1.4500: real time    1.4536
  RMM-DIIS:  cpu time    7.9942: real time    8.0164
    ORTHCH:  cpu time    0.4444: real time    0.4455
       DOS:  cpu time    0.0017: real time    0.0017
    CHARGE:  cpu time    0.2213: real time    0.2218
    MIXING:  cpu time    0.0024: real time    0.0025
    --------------------------------------------
      LOOP:  cpu time   10.2032: real time   10.2338

 eigenvalue-minimisations  :  9727
 total energy-change (2. order) : 0.2016695E+03  (-0.1447861E+03)
 number of electron     649.0000204 magnetization      59.9475822
 augmentation part       16.7202890 magnetization      57.8502066

 Broyden mixing:
  rms(total) = 0.60463E+01    rms(broyden)= 0.60416E+01
  rms(prec ) = 0.68337E+01
  weight for this iteration     100.00

 eigenvalues of (default mixing * dielectric matrix)
  average eigenvalue GAMMA=   0.7891
  0.7891

 Free energy of the ion-electron system (eV)
  ---------------------------------------------------
  alpha Z        PSCENC =      1881.95730920
  Ewald energy   TEWEN  =     65293.71131872
  -Hartree energ DENC   =   -114863.53161211
  -exchange      EXHF   =         0.00000000
  -V(xc)+E(xc)   XCENC  =      1738.81729905
  PAW double counting   =     44993.92444702   -44394.31027207
  entropy T*S    EENTRO =        -0.05737484
  eigenvalues    EBANDS =     -7296.27566829
  atomic energy  EATOM  =     52043.49464005
  Solvation  Ediel_sol  =         0.00000000
  ---------------------------------------------------
  free energy    TOTEN  =      -602.26991327 eV

  energy without entropy =     -602.21253843  energy(sigma->0) =     -602.24122585


--------------------------------------------------------------------------------------------------------




--------------------------------------- Iteration      1(   7)  ---------------------------------------


    POTLOK:  cpu time    0.0735: real time    0.0759
    SETDIJ:  cpu time    0.0150: real time    0.0151
    EDDIAG:  cpu time    1.4584: real time    1.4619
  RMM-DIIS:  cpu time    6.9095: real time    6.9308
    ORTHCH:  cpu time    0.4465: real time    0.4475
       DOS:  cpu time    0.0016: real time    0.0016
    CHARGE:  cpu time    0.2084: real time    0.2089
    MIXING:  cpu time    0.0024: real time    0.0024
    --------------------------------------------
      LOOP:  cpu time    9.1152: real time    9.1440

 eigenvalue-minimisations  :  8418
 total energy-change (2. order) :-0.9974490E+01  (-0.5420417E+02)
 number of electron     649.0000353 magnetization      61.6925176
 augmentation part       -3.9399578 magnetization      59.3958693

 Broyden mixing:
  rms(total) = 0.10441E+02    rms(broyden)= 0.10440E+02
  rms(prec ) = 0.10546E+02
  weight for this iteration     100.00

 eigenvalues of (default mixing * dielectric matrix)
  average eigenvalue GAMMA=   0.4077
  0.7969  0.0185

 Free energy of the ion-electron system (eV)
  ---------------------------------------------------
  alpha Z        PSCENC =      1881.95730920
  Ewald energy   TEWEN  =     65293.71131872
  -Hartree energ DENC   =   -115081.47548171
  -exchange      EXHF   =         0.00000000
  -V(xc)+E(xc)   XCENC  =      1711.64811912
  PAW double counting   =     46429.89389470   -45866.47105073
  entropy T*S    EENTRO =        -0.05384606
  eigenvalues    EBANDS =     -7024.94930693
  atomic energy  EATOM  =     52043.49464005
  Solvation  Ediel_sol  =         0.00000000
  ---------------------------------------------------
  free energy    TOTEN  =      -612.24440364 eV

  energy without entropy =     -612.19055758  energy(sigma->0) =     -612.21748061


--------------------------------------------------------------------------------------------------------




--------------------------------------- Iteration      1(   8)  ---------------------------------------


    POTLOK:  cpu time    0.0721: real time    0.0756
    SETDIJ:  cpu time    0.0152: real time    0.0153
    EDDIAG:  cpu time    1.4603: real time    1.4641
  RMM-DIIS:  cpu time    9.4222: real time    9.4755
    ORTHCH:  cpu time    0.4420: real time    0.4432
       DOS:  cpu time    0.0016: real time    0.0016
    CHARGE:  cpu time    0.2084: real time    0.2089
    MIXING:  cpu time    0.0025: real time    0.0025
    --------------------------------------------
      LOOP:  cpu time   11.6243: real time   11.6867

 eigenvalue-minimisations  : 11626
 total energy-change (2. order) :-0.1803999E+02  (-0.1575338E+02)
 number of electron     649.0000380 magnetization      55.6792017
 augmentation part       -4.6663849 magnetization      53.1499326

 Broyden mixing:
  rms(total) = 0.83847E+01    rms(broyden)= 0.83845E+01
  rms(prec ) = 0.86395E+01
  weight for this iteration     100.00

 eigenvalues of (default mixing * dielectric matrix)
  average eigenvalue GAMMA=   0.5682
  0.9486  0.3996  0.3563

 Free energy of the ion-electron system (eV)
  ---------------------------------------------------
  alpha Z        PSCENC =      1881.95730920
  Ewald energy   TEWEN  =     65293.71131872
  -Hartree energ DENC   =   -115052.33176139
  -exchange      EXHF   =         0.00000000
  -V(xc)+E(xc)   XCENC  =      1712.39995301
  PAW double counting   =     46168.20584070   -45606.32540338
  entropy T*S    EENTRO =        -0.04241186
  eigenvalues    EBANDS =     -7071.35387651
  atomic energy  EATOM  =     52043.49464005
  Solvation  Ediel_sol  =         0.00000000
  ---------------------------------------------------
  free energy    TOTEN  =      -630.28439146 eV

  energy without entropy =     -630.24197960  energy(sigma->0) =     -630.26318553


--------------------------------------------------------------------------------------------------------




--------------------------------------- Iteration      1(   9)  ---------------------------------------


    POTLOK:  cpu time    0.0718: real time    0.0757
    SETDIJ:  cpu time    0.0152: real time    0.0152
    EDDIAG:  cpu time    1.4688: real time    1.4726
  RMM-DIIS:  cpu time    9.4144: real time    9.4407
    ORTHCH:  cpu time    0.4457: real time    0.4469
       DOS:  cpu time    0.0016: real time    0.0016
    CHARGE:  cpu time    0.2168: real time    0.2174
    MIXING:  cpu time    0.0026: real time    0.0026
    --------------------------------------------
      LOOP:  cpu time   11.6370: real time   11.6728

 eigenvalue-minimisations  : 11220
 total energy-change (2. order) : 0.3458238E+02  (-0.1517200E+02)
 number of electron     649.0000315 magnetization      49.1543177
 augmentation part       -4.3730936 magnetization      46.5970142

 Broyden mixing:
  rms(total) = 0.65222E+01    rms(broyden)= 0.65219E+01
  rms(prec ) = 0.65938E+01
  weight for this iteration     100.00

 eigenvalues of (default mixing * dielectric matrix)
  average eigenvalue GAMMA=   0.6446
  0.4446  0.8110  0.8110  0.5117

 Free energy of the ion-electron system (eV)
  ---------------------------------------------------
  alpha Z        PSCENC =      1881.95730920
  Ewald energy   TEWEN  =     65293.71131872
  -Hartree energ DENC   =   -115311.20300020
  -exchange      EXHF   =         0.00000000
  -V(xc)+E(xc)   XCENC  =      1729.08609587
  PAW double counting   =     46917.26329012   -46343.79933207
  entropy T*S    EENTRO =        -0.04053046
  eigenvalues    EBANDS =     -6806.17180172
  atomic energy  EATOM  =     52043.49464005
  Solvation  Ediel_sol  =         0.00000000
  ---------------------------------------------------
  free energy    TOTEN  =      -595.70201048 eV

  energy without entropy =     -595.66148003  energy(sigma->0) =     -595.68174525


--------------------------------------------------------------------------------------------------------




--------------------------------------- Iteration      1(  10)  ---------------------------------------


    POTLOK:  cpu time    0.0751: real time    0.0760
    SETDIJ:  cpu time    0.0152: real time    0.0152
    EDDIAG:  cpu time    1.4600: real time    1.4636
  RMM-DIIS:  cpu time    8.9715: real time    8.9958
    ORTHCH:  cpu time    0.4450: real time    0.4461
       DOS:  cpu time    0.0016: real time    0.0016
    CHARGE:  cpu time    0.2205: real time    0.2210
    MIXING:  cpu time    0.0028: real time    0.0028
    --------------------------------------------
      LOOP:  cpu time   11.1917: real time   11.2222

 eigenvalue-minimisations  : 10930
 total energy-change (2. order) :-0.1704932E+02  (-0.1649740E+02)
 number of electron     649.0000241 magnetization      42.8994379
 augmentation part        5.0810142 magnetization      39.5365311

 Broyden mixing:
  rms(total) = 0.62908E+01    rms(broyden)= 0.62899E+01
  rms(prec ) = 0.68337E+01
  weight for this iteration     100.00

 eigenvalues of (default mixing * dielectric matrix)
  average eigenvalue GAMMA=   0.6573
  0.4785  0.9524  0.9524  0.4517  0.4517

 Free energy of the ion-electron system (eV)
  ---------------------------------------------------
  alpha Z        PSCENC =      1881.95730920
  Ewald energy   TEWEN  =     65293.71131872
  -Hartree energ DENC   =   -115404.83999000
  -exchange      EXHF   =         0.00000000
  -V(xc)+E(xc)   XCENC  =      1735.74189848
  PAW double counting   =     47341.18177046   -46748.98545325
  entropy T*S    EENTRO =        -0.06267858
  eigenvalues    EBANDS =     -6754.95014626
  atomic energy  EATOM  =     52043.49464005
  Solvation  Ediel_sol  =         0.00000000
  ---------------------------------------------------
  free energy    TOTEN  =      -612.75133118 eV

  energy without entropy =     -612.68865261  energy(sigma->0) =     -612.71999189


--------------------------------------------------------------------------------------------------------




--------------------------------------- Iteration      1(  11)  ---------------------------------------


    POTLOK:  cpu time    0.0730: real time    0.0768
    SETDIJ:  cpu time    0.0152: real time    0.0153
    EDDIAG:  cpu time    1.4427: real time    1.4463
  RMM-DIIS:  cpu time    9.1444: real time    9.1692
    ORTHCH:  cpu time    0.4436: real time    0.4447
       DOS:  cpu time    0.0016: real time    0.0016
    CHARGE:  cpu time    0.2133: real time    0.2138
    MIXING:  cpu time    0.0029: real time    0.0029
    --------------------------------------------
      LOOP:  cpu time   11.3368: real time   11.3706

 eigenvalue-minimisations  : 11105
 total energy-change (2. order) :-0.1026253E+02  (-0.4685372E+01)
 number of electron     649.0000218 magnetization      36.6450411
 augmentation part        3.8462895 magnetization      33.1479960

 Broyden mixing:
  rms(total) = 0.70532E+01    rms(broyden)= 0.70529E+01
  rms(prec ) = 0.75167E+01
  weight for this iteration     100.00

 eigenvalues of (default mixing * dielectric matrix)
  average eigenvalue GAMMA=   0.6532
  0.4949  1.0462  1.0462  0.5406  0.5406  0.2508

 Free energy of the ion-electron system (eV)
  ---------------------------------------------------
  alpha Z        PSCENC =      1881.95730920
  Ewald energy   TEWEN  =     65293.71131872
  -Hartree energ DENC   =   -115531.22070052
  -exchange      EXHF   =         0.00000000
  -V(xc)+E(xc)   XCENC  =      1733.47425066
  PAW double counting   =     47821.51828578   -47226.44019813
  entropy T*S    EENTRO =        -0.03795928
  eigenvalues    EBANDS =     -6639.47081233
  atomic energy  EATOM  =     52043.49464005
  Solvation  Ediel_sol  =         0.00000000
  ---------------------------------------------------
  free energy    TOTEN  =      -623.01386585 eV

  energy without entropy =     -622.97590657  energy(sigma->0) =     -622.99488621


--------------------------------------------------------------------------------------------------------




--------------------------------------- Iteration      1(  12)  ---------------------------------------


    POTLOK:  cpu time    0.0720: real time    0.0759
    SETDIJ:  cpu time    0.0152: real time    0.0152
    EDDIAG:  cpu time    1.4474: real time    1.4534
  RMM-DIIS:  cpu time    7.5931: real time    7.6121
    ORTHCH:  cpu time    0.4435: real time    0.4445
       DOS:  cpu time    0.0013: real time    0.0013
    CHARGE:  cpu time    0.2081: real time    0.2086
    MIXING:  cpu time    0.0029: real time    0.0029
    --------------------------------------------
      LOOP:  cpu time    9.7834: real time    9.8139

 eigenvalue-minimisations  :  9222
 total energy-change (2. order) :-0.7933425E+00  (-0.1796132E+01)
 number of electron     649.0000249 magnetization      27.4798215
 augmentation part       -0.2147781 magnetization      24.1000842

 Broyden mixing:
  rms(total) = 0.79111E+01    rms(broyden)= 0.79111E+01
  rms(prec ) = 0.81605E+01
  weight for this iteration     100.00

 eigenvalues of (default mixing * dielectric matrix)
  average eigenvalue GAMMA=   0.7162
  1.3319  1.3319  0.5075  0.5589  0.5589  0.4301  0.2945

 Free energy of the ion-electron system (eV)
  ---------------------------------------------------
  alpha Z        PSCENC =      1881.95730920
  Ewald energy   TEWEN  =     65293.71131872
  -Hartree energ DENC   =   -115661.10339012
  -exchange      EXHF   =         0.00000000
  -V(xc)+E(xc)   XCENC  =      1729.68061417
  PAW double counting   =     48131.07781291   -47534.86574378
  entropy T*S    EENTRO =        -0.00001561
  eigenvalues    EBANDS =     -6507.75975393
  atomic energy  EATOM  =     52043.49464005
  Solvation  Ediel_sol  =         0.00000000
  ---------------------------------------------------
  free energy    TOTEN  =      -623.80720840 eV

  energy without entropy =     -623.80719279  energy(sigma->0) =     -623.80720059


--------------------------------------------------------------------------------------------------------




--------------------------------------- Iteration      1(  13)  ---------------------------------------


    POTLOK:  cpu time    0.0719: real time    0.0757
    SETDIJ:  cpu time    0.0152: real time    0.0153
    EDDIAG:  cpu time    1.4474: real time    1.4528
  RMM-DIIS:  cpu time    9.0863: real time    9.1099
    ORTHCH:  cpu time    0.4419: real time    0.4446
       DOS:  cpu time    0.0016: real time    0.0016
    CHARGE:  cpu time    0.2143: real time    0.2149
    MIXING:  cpu time    0.0030: real time    0.0030
    --------------------------------------------
      LOOP:  cpu time   11.2816: real time   11.3178

 eigenvalue-minimisations  : 11069
 total energy-change (2. order) :-0.2110699E+02  (-0.2595956E+01)
 number of electron     649.0000226 magnetization      22.9319755
 augmentation part       -0.2046807 magnetization      19.1332909

 Broyden mixing:
  rms(total) = 0.99303E+01    rms(broyden)= 0.99302E+01
  rms(prec ) = 0.10224E+02
  weight for this iteration     100.00

 eigenvalues of (default mixing * dielectric matrix)
  average eigenvalue GAMMA=   0.7384
  1.5794  1.4934  0.5123  0.6222  0.6222  0.4072  0.4072  0.2637

 Free energy of the ion-electron system (eV)
  ---------------------------------------------------
  alpha Z        PSCENC =      1881.95730920
  Ewald energy   TEWEN  =     65293.71131872
  -Hartree energ DENC   =   -115821.59746566
  -exchange      EXHF   =         0.00000000
  -V(xc)+E(xc)   XCENC  =      1728.05419327
  PAW double counting   =     48346.41526494   -47742.51703327
  entropy T*S    EENTRO =        -0.01500469
  eigenvalues    EBANDS =     -6374.41742245
  atomic energy  EATOM  =     52043.49464005
  Solvation  Ediel_sol  =         0.00000000
  ---------------------------------------------------
  free energy    TOTEN  =      -644.91419989 eV

  energy without entropy =     -644.89919520  energy(sigma->0) =     -644.90669755


--------------------------------------------------------------------------------------------------------




--------------------------------------- Iteration      1(  14)  ---------------------------------------


    POTLOK:  cpu time    0.0721: real time    0.0758
    SETDIJ:  cpu time    0.0153: real time    0.0153
    EDDIAG:  cpu time    1.4520: real time    1.4556
  RMM-DIIS:  cpu time    9.1379: real time    9.1669
    ORTHCH:  cpu time    0.4424: real time    0.4436
       DOS:  cpu time    0.0012: real time    0.0012
    CHARGE:  cpu time    0.2126: real time    0.2131
    MIXING:  cpu time    0.0032: real time    0.0032
    --------------------------------------------
      LOOP:  cpu time   11.3367: real time   11.3748

 eigenvalue-minimisations  : 11116
 total energy-change (2. order) :-0.2020973E+02  (-0.2905303E+01)
 number of electron     649.0000201 magnetization      19.1259145
 augmentation part        1.7981573 magnetization      14.4296702

 Broyden mixing:
  rms(total) = 0.11049E+02    rms(broyden)= 0.11049E+02
  rms(prec ) = 0.11453E+02
  weight for this iteration     100.00

 eigenvalues of (default mixing * dielectric matrix)
  average eigenvalue GAMMA=   0.7194
  1.6827  1.6827  0.5141  0.6460  0.6460  0.4274  0.4274  0.2627  0.1854

 Free energy of the ion-electron system (eV)
  ---------------------------------------------------
  alpha Z        PSCENC =      1881.95730920
  Ewald energy   TEWEN  =     65293.71131872
  -Hartree energ DENC   =   -115925.15451955
  -exchange      EXHF   =         0.00000000
  -V(xc)+E(xc)   XCENC  =      1728.30327530
  PAW double counting   =     48326.12682554   -47718.06918332
  entropy T*S    EENTRO =        -0.00000664
  eigenvalues    EBANDS =     -6295.49359263
  atomic energy  EATOM  =     52043.49464005
  Solvation  Ediel_sol  =         0.00000000
  ---------------------------------------------------
  free energy    TOTEN  =      -665.12393333 eV

  energy without entropy =     -665.12392670  energy(sigma->0) =     -665.12393001


--------------------------------------------------------------------------------------------------------




--------------------------------------- Iteration      1(  15)  ---------------------------------------


    POTLOK:  cpu time    0.0746: real time    0.0761
    SETDIJ:  cpu time    0.0152: real time    0.0152
    EDDIAG:  cpu time    1.4620: real time    1.4657
  RMM-DIIS:  cpu time    9.2149: real time    9.2397
    ORTHCH:  cpu time    0.4438: real time    0.4449
       DOS:  cpu time    0.0013: real time    0.0013
    CHARGE:  cpu time    0.2141: real time    0.2146
    MIXING:  cpu time    0.0035: real time    0.0035
    --------------------------------------------
      LOOP:  cpu time   11.4294: real time   11.4609

 eigenvalue-minimisations  : 11237
 total energy-change (2. order) :-0.1619808E+02  (-0.1660329E+01)
 number of electron     649.0000191 magnetization      17.9374708
 augmentation part        1.9027474 magnetization      12.3022190

 Broyden mixing:
  rms(total) = 0.13017E+02    rms(broyden)= 0.13017E+02
  rms(prec ) = 0.13441E+02
  weight for this iteration     100.00

 eigenvalues of (default mixing * dielectric matrix)
  average eigenvalue GAMMA=   0.6546
  1.6802  1.6802  0.5138  0.6464  0.6464  0.4310  0.4310  0.2624  0.1999  0.0543

 Free energy of the ion-electron system (eV)
  ---------------------------------------------------
  alpha Z        PSCENC =      1881.95730920
  Ewald energy   TEWEN  =     65293.71131872
  -Hartree energ DENC   =   -116026.50913130
  -exchange      EXHF   =         0.00000000
  -V(xc)+E(xc)   XCENC  =      1728.03507100
  PAW double counting   =     48193.98565795   -47585.71539291
  entropy T*S    EENTRO =        -0.00014305
  eigenvalues    EBANDS =     -6210.28134662
  atomic energy  EATOM  =     52043.49464005
  Solvation  Ediel_sol  =         0.00000000
  ---------------------------------------------------
  free energy    TOTEN  =      -681.32201696 eV

  energy without entropy =     -681.32187392  energy(sigma->0) =     -681.32194544


--------------------------------------------------------------------------------------------------------




--------------------------------------- Iteration      1(  16)  ---------------------------------------


    POTLOK:  cpu time    0.0757: real time    0.0762
    SETDIJ:  cpu time    0.0152: real time    0.0153
    EDDIAG:  cpu time    1.4502: real time    1.4540
  RMM-DIIS:  cpu time    9.3820: real time    9.4069
    ORTHCH:  cpu time    0.4463: real time    0.4476
       DOS:  cpu time    0.0014: real time    0.0014
    CHARGE:  cpu time    0.2176: real time    0.2181
    MIXING:  cpu time    0.0036: real time    0.0036
    --------------------------------------------
      LOOP:  cpu time   11.5921: real time   11.6231

 eigenvalue-minimisations  : 11412
 total energy-change (2. order) :-0.1061151E+02  (-0.9183165E+00)
 number of electron     649.0000179 magnetization      17.9061040
 augmentation part        2.4366457 magnetization      11.5329081

 Broyden mixing:
  rms(total) = 0.14223E+02    rms(broyden)= 0.14223E+02
  rms(prec ) = 0.14684E+02
  weight for this iteration     100.00

 eigenvalues of (default mixing * dielectric matrix)
  average eigenvalue GAMMA=   0.6720
  1.8618  1.5453  0.5143  0.5143  0.6493  0.6493  0.4515  0.4515  0.2620  0.2466
  0.2466

 Free energy of the ion-electron system (eV)
  ---------------------------------------------------
  alpha Z        PSCENC =      1881.95730920
  Ewald energy   TEWEN  =     65293.71131872
  -Hartree energ DENC   =   -116066.09622462
  -exchange      EXHF   =         0.00000000
  -V(xc)+E(xc)   XCENC  =      1728.71340305
  PAW double counting   =     48052.93467062   -47445.42975362
  entropy T*S    EENTRO =        -0.00041953
  eigenvalues    EBANDS =     -6181.21846804
  atomic energy  EATOM  =     52043.49464005
  Solvation  Ediel_sol  =         0.00000000
  ---------------------------------------------------
  free energy    TOTEN  =      -691.93352418 eV

  energy without entropy =     -691.93310464  energy(sigma->0) =     -691.93331441


--------------------------------------------------------------------------------------------------------




--------------------------------------- Iteration      1(  17)  ---------------------------------------


    POTLOK:  cpu time    0.0719: real time    0.0758
    SETDIJ:  cpu time    0.0152: real time    0.0152
    EDDIAG:  cpu time    1.4437: real time    1.4476
  RMM-DIIS:  cpu time   10.9416: real time   10.9716
    ORTHCH:  cpu time    0.4444: real time    0.4455
       DOS:  cpu time    0.0014: real time    0.0014
    CHARGE:  cpu time    0.2172: real time    0.2177
    MIXING:  cpu time    0.0035: real time    0.0036
    --------------------------------------------
      LOOP:  cpu time   13.1390: real time   13.1784

 eigenvalue-minimisations  : 13349
 total energy-change (2. order) :-0.1073440E+01  (-0.1689684E+00)
 number of electron     649.0000174 magnetization      16.3395606
 augmentation part        2.4263698 magnetization       9.7259876

 Broyden mixing:
  rms(total) = 0.14344E+02    rms(broyden)= 0.14344E+02
  rms(prec ) = 0.14824E+02
  weight for this iteration     100.00

 eigenvalues of (default mixing * dielectric matrix)
  average eigenvalue GAMMA=   0.6673
  2.2532  1.3019  0.6303  0.5239  0.6832  0.6832  0.4846  0.4846  0.2810  0.2810
  0.2532  0.1474

 Free energy of the ion-electron system (eV)
  ---------------------------------------------------
  alpha Z        PSCENC =      1881.95730920
  Ewald energy   TEWEN  =     65293.71131872
  -Hartree energ DENC   =   -116068.24043471
  -exchange      EXHF   =         0.00000000
  -V(xc)+E(xc)   XCENC  =      1728.79705350
  PAW double counting   =     48040.81842597   -47433.38526386
  entropy T*S    EENTRO =        -0.00041435
  eigenvalues    EBANDS =     -6180.15959871
  atomic energy  EATOM  =     52043.49464005
  Solvation  Ediel_sol  =         0.00000000
  ---------------------------------------------------
  free energy    TOTEN  =      -693.00696420 eV

  energy without entropy =     -693.00654986  energy(sigma->0) =     -693.00675703


--------------------------------------------------------------------------------------------------------




--------------------------------------- Iteration      1(  18)  ---------------------------------------


    POTLOK:  cpu time    0.0721: real time    0.0758
    SETDIJ:  cpu time    0.0152: real time    0.0152
    EDDIAG:  cpu time    1.4463: real time    1.4498
  RMM-DIIS:  cpu time    9.3044: real time    9.3295
    ORTHCH:  cpu time    0.4445: real time    0.4456
       DOS:  cpu time    0.0017: real time    0.0017
    CHARGE:  cpu time    0.2209: real time    0.2214
    MIXING:  cpu time    0.0037: real time    0.0037
[...]
   -.142E+00 0.265E+00 0.118E+04   0.167E+00 -.244E+00 -.119E+04   -.431E-01 -.410E-01 0.725E+01   -.214E-02 -.878E-03 0.720E-02
   -.516E+00 -.622E+01 -.117E+04   0.620E+00 0.595E+01 0.118E+04   -.879E-01 0.278E+00 -.832E+01   -.100E-01 -.105E-01 0.845E-02
   -.598E+01 -.997E+01 -.260E+03   0.550E+01 0.997E+01 0.260E+03   0.472E+00 0.176E-01 0.222E-02   -.185E-02 0.417E-03 -.905E-02
   0.662E-01 0.429E+01 0.695E+03   -.768E-01 -.425E+01 -.694E+03   -.261E-01 -.119E+00 -.197E+00   -.359E-03 -.331E-02 0.553E-03
   -.258E+00 -.166E+01 0.236E+03   0.320E+00 0.169E+01 -.236E+03   -.640E-01 -.286E-01 0.640E+00   0.246E-02 -.905E-03 -.425E-02
   -.275E-01 -.501E+02 -.749E+03   -.183E-02 0.532E+02 0.749E+03   0.258E-01 -.315E+01 0.150E+00   -.966E-02 0.149E-01 -.606E-02
   0.221E+00 0.232E+00 0.118E+04   -.244E+00 -.213E+00 -.119E+04   0.401E-01 -.411E-01 0.726E+01   0.126E-02 0.339E-03 0.663E-02
   -.261E+01 0.885E+01 -.117E+04   0.255E+01 -.868E+01 0.117E+04   0.360E-01 -.152E+00 -.800E+01   0.178E-01 -.835E-02 0.539E-02
   0.717E+01 -.994E+01 -.260E+03   -.679E+01 0.996E+01 0.260E+03   -.387E+00 -.170E-01 -.128E+00   0.594E-03 0.362E-03 -.200E-01
   0.268E+00 0.222E+01 0.689E+03   -.304E+00 -.240E+01 -.688E+03   0.512E-01 0.262E+00 -.205E+00   0.256E-03 0.106E-02 0.184E-02
   -.469E+00 -.169E+01 0.235E+03   0.457E+00 0.173E+01 -.236E+03   0.103E-01 -.508E-01 0.671E+00   -.192E-02 -.117E-02 -.379E-02
   0.115E+02 -.861E+00 -.678E+03   -.110E+02 0.747E+00 0.678E+03   -.444E+00 0.106E+00 0.282E+00   0.155E-01 0.855E-02 -.704E-02
   -.131E+00 0.104E+01 0.118E+04   0.128E+00 -.101E+01 -.119E+04   0.574E-02 -.477E-01 0.727E+01   0.915E-03 -.319E-02 0.102E-01
   0.852E+00 0.840E+01 -.117E+04   -.665E+00 -.835E+01 0.118E+04   -.172E+00 -.527E-01 -.798E+01   -.774E-02 -.622E-03 0.265E-02
   -.167E+00 0.260E+01 -.251E+03   0.131E+00 -.276E+01 0.251E+03   0.358E-01 0.152E+00 0.280E+00   0.106E-02 -.109E-02 -.202E-02
   -.151E+00 0.396E+01 0.695E+03   0.959E-01 -.392E+01 -.695E+03   0.127E+00 -.108E+00 -.204E+00   0.866E-04 -.122E-02 0.166E-02
   -.601E+01 0.471E+01 0.238E+03   0.656E+01 -.462E+01 -.239E+03   -.530E+00 -.963E-01 0.689E+00   0.704E-03 0.495E-03 -.208E-02
   0.453E+00 -.465E+01 -.674E+03   -.468E+00 0.523E+01 0.672E+03   0.164E-01 -.586E+00 0.183E+01   -.223E-02 0.717E-04 -.774E-03
   -.632E+00 0.532E+00 0.118E+04   0.637E+00 -.546E+00 -.119E+04   -.128E-01 0.297E-01 0.729E+01   0.137E-02 0.686E-03 0.661E-02
   -.315E+02 -.119E+02 -.114E+04   0.184E+02 0.365E+01 0.111E+04   0.131E+02 0.826E+01 0.248E+02   -.817E-03 0.527E-02 0.381E-02
   -.126E+02 0.331E+01 -.244E+03   0.130E+02 -.319E+01 0.245E+03   -.351E+00 -.118E+00 -.658E+00   0.585E-03 0.272E-03 -.243E-02
   0.972E-01 0.712E+00 0.701E+03   -.115E+00 -.721E+00 -.701E+03   0.266E-01 -.551E-02 0.309E+00   -.870E-04 0.520E-03 0.178E-02
   0.492E+01 0.446E+01 0.239E+03   -.528E+01 -.441E+01 -.239E+03   0.342E+00 -.574E-01 0.713E+00   0.423E-03 0.383E-03 -.422E-02
   -.246E+02 0.291E+02 -.698E+03   0.265E+02 -.300E+02 0.697E+03   -.188E+01 0.842E+00 0.113E+01   0.451E-02 0.366E-03 0.572E-03
   0.181E-02 0.688E+00 0.118E+04   -.973E-03 -.697E+00 -.119E+04   -.183E-02 0.159E-01 0.727E+01   0.575E-03 0.131E-02 0.628E-02
   0.318E+02 -.127E+02 -.114E+04   -.175E+02 0.410E+01 0.112E+04   -.143E+02 0.861E+01 0.241E+02   0.214E-02 0.154E-01 0.891E-02
   0.629E+00 0.105E+02 -.233E+03   -.719E+00 -.105E+02 0.239E+03   0.919E-01 0.193E-01 -.620E+01   -.114E-02 0.195E-02 -.743E-03
   -.552E+00 0.177E+00 0.696E+03   0.497E+00 -.117E+00 -.696E+03   0.920E-01 -.992E-01 0.125E+00   0.136E-02 0.176E-02 0.118E-02
   -.375E+00 0.561E+01 0.245E+03   0.432E+00 -.565E+01 -.245E+03   -.622E-01 0.325E-01 0.377E+00   -.972E-03 -.127E-02 -.133E-02
   0.218E+02 0.282E+02 -.702E+03   -.231E+02 -.289E+02 0.700E+03   0.133E+01 0.632E+00 0.138E+01   -.263E-02 0.326E-03 0.103E-02
   0.578E+00 0.442E+00 0.118E+04   -.583E+00 -.456E+00 -.119E+04   0.140E-01 0.291E-01 0.729E+01   -.187E-02 -.237E-03 0.585E-02
   -.216E+01 0.109E+02 -.116E+04   0.222E+01 -.118E+02 0.117E+04   -.680E-01 0.911E+00 -.841E+01   0.307E-03 -.117E-02 -.672E-03
   0.136E+02 0.240E+01 -.246E+03   -.141E+02 -.228E+01 0.247E+03   0.439E+00 -.117E+00 -.861E+00   0.659E-03 0.909E-03 -.138E-02
   0.664E+00 -.143E+00 0.696E+03   -.649E+00 0.224E+00 -.695E+03   -.389E-01 -.125E+00 0.120E+00   -.134E-02 -.378E-03 0.102E-02
   -.719E+01 -.239E+00 0.243E+03   0.761E+01 0.861E-01 -.243E+03   -.410E+00 0.155E+00 0.190E+00   0.125E-02 0.612E-03 -.182E-02
   0.387E+01 -.480E+01 -.686E+03   -.413E+01 0.463E+01 0.685E+03   0.272E+00 0.186E+00 0.957E+00   -.116E-02 -.630E-02 -.336E-02
   0.684E-01 -.122E+01 0.118E+04   -.702E-01 0.123E+01 -.119E+04   0.385E-02 -.236E-01 0.732E+01   0.455E-03 -.159E-04 0.490E-02
   -.127E+02 -.629E+01 -.118E+04   0.131E+02 0.656E+01 0.119E+04   -.414E+00 -.270E+00 -.845E+01   0.133E-02 -.171E-02 0.201E-03
   -.178E+00 -.271E+01 -.245E+03   0.221E+00 0.238E+01 0.246E+03   -.342E-01 0.325E+00 -.832E+00   -.644E-03 -.171E-02 -.283E-02
   0.222E+01 -.336E+01 0.695E+03   -.225E+01 0.334E+01 -.695E+03   0.663E-02 0.504E-01 0.356E-01   -.222E-02 0.124E-02 0.125E-02
   -.893E+00 0.199E+01 0.243E+03   0.957E+00 -.262E+01 -.243E+03   -.669E-01 0.617E+00 0.374E+00   -.684E-03 0.170E-02 -.210E-02
   -.287E+01 -.433E+01 -.685E+03   0.311E+01 0.410E+01 0.684E+03   -.233E+00 0.255E+00 0.958E+00   -.482E-04 -.168E-01 -.724E-02
   -.285E+00 -.975E+00 0.118E+04   0.296E+00 0.956E+00 -.119E+04   -.239E-01 0.382E-01 0.729E+01   0.151E-02 0.268E-03 0.713E-02
   0.119E+01 0.435E+01 -.118E+04   -.129E+01 -.380E+01 0.119E+04   0.995E-01 -.548E+00 -.974E+01   -.131E-02 -.348E-02 0.487E-04
   -.110E+01 0.127E+01 -.248E+03   0.936E+00 -.111E+01 0.248E+03   0.163E+00 -.158E+00 0.948E-01   0.244E-02 -.166E-02 -.400E-02
   -.193E+01 -.327E+01 0.696E+03   0.191E+01 0.324E+01 -.696E+03   0.633E-01 0.631E-01 0.686E-01   0.214E-02 -.537E-03 0.139E-02
   0.727E+01 -.435E+00 0.243E+03   -.767E+01 0.296E+00 -.243E+03   0.403E+00 0.138E+00 0.200E+00   -.597E-03 0.315E-03 -.121E-02
   -.719E+00 0.283E+01 -.686E+03   0.738E+00 -.301E+01 0.685E+03   -.190E-01 0.194E+00 0.318E+00   0.122E-02 -.142E-03 -.802E-03
   0.188E+00 -.107E+01 0.118E+04   -.197E+00 0.105E+01 -.119E+04   0.218E-01 0.422E-01 0.729E+01   -.203E-02 0.164E-02 0.674E-02
   0.125E+02 -.601E+01 -.118E+04   -.129E+02 0.619E+01 0.119E+04   0.413E+00 -.177E+00 -.842E+01   -.311E-04 -.225E-02 -.880E-03
   0.169E+01 0.134E+01 -.250E+03   -.162E+01 -.113E+01 0.250E+03   -.722E-01 -.211E+00 0.783E-01   -.178E-02 0.186E-03 -.354E-02
   -.299E+00 -.440E+01 0.695E+03   0.270E+00 0.429E+01 -.694E+03   0.473E-01 0.276E+00 -.122E+00   0.563E-04 0.952E-03 0.886E-03
   -.377E+02 -.421E+02 -.187E+04   0.379E+02 0.408E+02 0.186E+04   -.222E+00 0.126E+01 0.258E+01   -.877E-02 0.514E-03 0.818E-03
   -.824E+01 0.165E+02 -.125E+02   0.835E+01 -.159E+02 0.123E+02   -.129E+00 -.581E+00 0.183E+00   -.100E-02 -.728E-03 -.393E-02
   0.437E+00 -.433E+01 0.191E+04   -.436E+00 0.443E+01 -.191E+04   -.610E-03 -.291E-01 -.220E+01   0.221E-03 -.311E-03 0.732E-02
   0.416E+02 -.412E+02 -.187E+04   -.417E+02 0.400E+02 0.186E+04   0.166E+00 0.118E+01 0.256E+01   -.223E-02 0.204E-03 -.993E-03
   0.866E+00 0.101E+02 -.617E+02   -.856E+00 -.897E+01 0.618E+02   -.238E-01 -.110E+01 -.821E-01   -.480E-02 0.404E-02 -.998E-02
   -.413E+00 -.624E+00 0.191E+04   0.440E+00 0.689E+00 -.191E+04   -.909E-02 -.305E-01 -.201E+01   0.457E-02 -.253E-02 0.827E-02
   -.855E+00 0.174E+01 -.189E+04   0.922E+00 -.252E+01 0.189E+04   -.749E-01 0.771E+00 0.224E+01   0.107E-01 -.280E-02 -.225E-03
   0.729E+01 0.150E+02 -.124E+02   -.741E+01 -.144E+02 0.122E+02   0.124E+00 -.546E+00 0.171E+00   0.568E-02 0.120E-02 -.115E-01
   0.442E+00 -.643E+00 0.191E+04   -.445E+00 0.700E+00 -.191E+04   0.127E-02 -.253E-01 -.199E+01   -.481E-02 0.168E-02 0.909E-02
   -.511E+02 0.870E+01 -.187E+04   0.504E+02 -.740E+01 0.187E+04   0.727E+00 -.132E+01 0.246E+01   0.224E-02 -.282E-03 -.170E-02
   0.431E+00 -.142E+01 0.179E+02   -.454E+00 0.123E+01 -.181E+02   0.195E-01 0.180E+00 0.226E+00   0.592E-03 -.377E-03 -.310E-02
   -.305E+01 0.256E+01 0.192E+04   0.306E+01 -.267E+01 -.191E+04   -.166E-02 0.452E-01 -.218E+01   -.173E-03 0.536E-03 0.903E-02
   0.197E+01 0.740E+00 -.182E+02   -.105E+01 -.126E+01 0.183E+02   -.919E+00 0.516E+00 -.130E+00   0.165E-02 0.112E-02 -.317E-02
   0.344E+01 0.229E+01 0.192E+04   -.343E+01 -.239E+01 -.191E+04   -.605E-02 0.413E-01 -.218E+01   0.771E-03 0.503E-03 0.745E-02
   0.525E+02 0.434E+01 -.187E+04   -.517E+02 -.313E+01 0.187E+04   -.752E+00 -.120E+01 0.241E+01   0.158E-02 0.879E-02 -.140E-02
   -.253E+01 -.504E+00 -.218E+02   0.162E+01 -.223E-01 0.218E+02   0.914E+00 0.536E+00 -.520E-01   -.230E-02 0.217E-02 -.228E-02
   0.392E-01 0.365E+01 0.192E+04   -.309E-01 -.379E+01 -.192E+04   -.181E-04 0.563E-01 -.222E+01   -.751E-03 -.431E-02 0.927E-02
   0.131E+00 -.181E+02 -.190E+04   -.126E+00 0.177E+02 0.190E+04   -.122E-02 0.371E+00 0.203E+01   -.464E-02 -.684E-02 -.839E-03
   0.112E+02 -.135E+02 0.356E+00   -.108E+02 0.134E+02 -.578E+00   -.372E+00 0.873E-01 0.198E+00   -.271E-02 -.572E-03 -.438E-02
   -.251E+01 -.121E+01 0.192E+04   0.256E+01 0.125E+01 -.192E+04   -.896E-02 -.185E-01 -.221E+01   0.420E-02 0.227E-02 0.683E-02
   -.503E+01 0.115E+02 -.189E+04   0.530E+01 -.115E+02 0.189E+04   -.289E+00 -.628E-01 0.229E+01   0.967E-02 -.108E-01 0.573E-03
   -.926E+01 -.128E+02 0.145E+01   0.893E+01 0.128E+02 -.168E+01   0.336E+00 0.502E-01 0.218E+00   0.201E-02 -.567E-02 -.114E-01
   -.884E-01 0.436E+00 0.192E+04   0.100E+00 -.353E+00 -.192E+04   -.541E-02 -.341E-01 -.226E+01   -.392E-02 0.287E-02 0.748E-02
   0.403E+01 0.105E+02 -.190E+04   -.434E+01 -.105E+02 0.189E+04   0.334E+00 -.171E-01 0.225E+01   -.552E-02 -.219E-02 0.810E-03
   -.186E+01 -.117E+02 -.396E+01   0.182E+01 0.111E+02 0.377E+01   0.417E-01 0.626E+00 0.161E+00   0.695E-03 -.111E-02 -.555E-02
   0.283E+01 -.153E+01 0.192E+04   -.287E+01 0.157E+01 -.192E+04   0.884E-02 -.190E-01 -.221E+01   -.202E-03 -.631E-03 0.634E-02
   0.838E+00 0.115E+03 -.172E+04   -.630E+00 -.113E+03 0.172E+04   -.212E+00 -.230E+01 0.119E+01   -.253E-02 0.104E-01 0.246E-04
   0.375E+02 -.223E+02 -.245E+03   -.409E+02 0.244E+02 0.252E+03   0.346E+01 -.213E+01 -.703E+01   -.152E-03 0.135E-02 0.719E-03
   -.356E+02 -.219E+02 -.247E+03   0.389E+02 0.241E+02 0.254E+03   -.331E+01 -.212E+01 -.711E+01   -.107E-03 0.478E-03 -.515E-04
 -----------------------------------------------------------------------------------------------
   0.183E+01 -.945E+01 -.460E+02   -.533E-12 -.183E-11 -.122E-11   -.182E+01 0.944E+01 0.455E+02   0.729E-03 -.707E-02 0.188E-01
 
 
 POSITION                                       TOTAL-FORCE (eV/Angst)
 -----------------------------------------------------------------------------------
      3.05376      0.31525      3.15235         0.008002      0.007213     -0.001947
     -0.69645      2.55180      6.37007        -0.003773     -0.000462      0.007703
      1.13689      1.42003      0.00000        -0.020496     -0.020130     -0.327437
      3.05856      0.32503      8.01122         0.006100     -0.002354     -0.003374
      1.19690      1.42215      4.83874        -0.003514      0.011038      0.004220
     -0.77618      2.52453      1.56195        -0.037199     -0.084146      0.415293
      6.87754      0.31941      3.17532        -0.000143     -0.006740      0.010774
      3.07220      2.67731      6.53953        -0.013340      0.009763      0.002914
      4.96302      1.42003      0.00000         0.019082     -0.020902     -0.326627
      6.89708      0.29380      7.96975        -0.006472      0.007654      0.005700
      4.92625      1.42278      4.83496        -0.006383      0.005090      0.004143
      3.04995      2.52453      1.56195         0.015049      0.082256      0.554329
     10.71249      0.31829      3.17847        -0.003530     -0.005965      0.008638
      6.82414      2.55133      6.37240         0.001885      0.000434      0.002743
      8.78926      1.42003      0.00000         0.003289     -0.024206     -0.325693
     10.70772      0.30302      7.97577         0.006556     -0.005091      0.000201
      8.79774      1.43967      4.84070         0.001073     -0.006077      0.000474
      6.87620      2.52453      1.56195         0.071829     -0.075799      0.409349
      1.10269      3.60550      3.15067         0.016791      0.003478      0.001265
     -2.68183      5.86323      6.35775        -0.000184     -0.008913      0.005693
     -0.77618      4.73355      0.00000        -0.006744      0.016229     -0.314158
      0.73189      3.40807      8.50240        -0.042128     -0.027415     -0.000825
     -0.79746      4.74140      4.78451         0.004054     -0.003795      0.007338
     -2.68924      5.83806      1.56195         0.008751     -0.013266      0.437072
      5.00763      3.60511      3.14966        -0.018112     -0.002753      0.003698
      1.07235      5.78168      6.39542        -0.006198     -0.010003      0.016464
      3.04995      4.73355      0.00000        -0.000558      0.008163     -0.328770
      5.45501      3.36346      8.54270        -0.008747      0.000958     -0.032462
      3.05594      4.75188      4.57385         0.001300     -0.005254      0.010530
      1.13689      5.83806      1.56195         0.038139     -0.037442      0.498410
      8.79525      3.61684      3.14850        -0.006513     -0.006271      0.007902
      5.04758      5.76332      6.41294        -0.011739     -0.003540      0.006870
      6.87620      4.73355      0.00000         0.007185      0.015313     -0.314176
      8.80861      3.63457      7.95796        -0.011387     -0.001957      0.004954
      6.90905      4.73881      4.78581        -0.002087      0.003236      0.015266
      4.96313      5.83806      1.56195        -0.025109     -0.044585      0.504591
     -0.77595      6.95359      3.14674         0.011580      0.003456      0.009397
     -4.58566      9.14418      6.37201         0.006996      0.009048      0.003906
     -2.68930      8.04717      0.00000         0.002383     -0.011578     -0.308675
     -0.79518      6.94993      8.02416         0.000303     -0.001441      0.006864
     -2.68541      8.05269      4.79641         0.007858     -0.002468      0.007237
     -4.60236      9.15168      1.56195        -0.022398      0.033954      0.471922
      3.05390      6.99518      3.14092        -0.003665     -0.010284      0.009810
     -0.77872      9.14453      6.37035         0.005802      0.008308     -0.003048
      1.13683      8.04717      0.00000        -0.012284      0.019076     -0.315960
      3.06331      6.98777      8.00614        -0.008489      0.007595      0.013601
      1.13656      8.03001      4.81837         0.001768     -0.003943     -0.000156
     -0.77623      9.15168      1.56195         0.045734      0.037546      0.466778
      6.88114      6.95201      3.14685        -0.005767     -0.000188      0.002922
      3.06312      9.14475      6.35565         0.001539      0.018846     -0.015210
      4.96307      8.04717      0.00000         0.010456      0.021822     -0.317178
      6.91331      6.94769      8.02911         0.009448      0.003881      0.001478
      4.97793      8.01970      4.82325        -0.003042     -0.000609      0.009971
      3.05001      9.15168      1.56195         0.017858      0.166631      0.442463
      1.16857      1.40024      7.18986        -0.020445      0.000104     -0.007509
     -0.76407      2.53254      3.98025        -0.011350     -0.011303     -0.033502
      3.04995      0.31552      0.78097         0.001130      0.075461     -0.103070
      4.96257      1.39697      7.19166        -0.021809     -0.008280     -0.012155
      3.05890      2.56291      3.99964        -0.018826     -0.001949     -0.018422
      6.87620      0.31552      0.78097         0.022155      0.032092     -0.115699
      8.80537      1.41047      7.18023         0.002399     -0.011949     -0.019184
      6.87960      2.53152      3.98006         0.004598      0.001729     -0.035817
     10.70232      0.31552      0.78097        -0.007163      0.033585     -0.107249
     -0.80637      4.77047      7.17232        -0.014669     -0.017917      0.022977
     -2.68556      5.84150      3.94910        -0.003104     -0.007058     -0.019792
      1.13689      3.62904      0.78097         0.004934     -0.064709     -0.135012
      1.15083      5.82742      3.96719         0.002121     -0.007933     -0.021290
      4.96313      3.62904      0.78097         0.003294     -0.066361     -0.142871
      6.93499      4.76017      7.18511        -0.000079      0.019382     -0.003839
      4.95936      5.82298      3.96876         0.003538      0.011360     -0.014723
      8.78926      3.62904      0.78097         0.007382     -0.088801     -0.152898
     -2.68161      8.04813      7.18730        -0.000558     -0.020376      0.004981
     -4.58617      9.15262      3.97134        -0.012005     -0.007795     -0.023823
     -0.77623      6.94267      0.78097         0.042886      0.024670     -0.185973
      1.14134      8.02438      7.16667        -0.013557     -0.009609      0.008462
     -0.78185      9.15499      3.96880         0.003384     -0.014865     -0.021130
      3.05001      6.94267      0.78097         0.002252      0.052213     -0.140420
      4.97990      8.02238      7.17389         0.015816      0.007800     -0.011267
      3.05603      9.14759      3.97832         0.008298      0.000134     -0.026361
      6.87614      6.94267      0.78097        -0.034898      0.025084     -0.179428
      3.06566      4.96805      7.14881        -0.006837     -0.005266     -0.004318
      5.03697      3.61936      9.38209        -0.016706      0.006848      0.020232
      1.13107      3.66287      9.35116         0.017012      0.000296      0.021912
 -----------------------------------------------------------------------------------
    total drift:                                0.011552     -0.013548     -0.412681
  FORCES: max atom, RMS     0.050269    0.016297
  Number: max atom                22
  FORCE total and by dimension    0.148477    0.042128


--------------------------------------------------------------------------------------------------------



  FREE ENERGIE OF THE ION-ELECTRON SYSTEM (eV)
  ---------------------------------------------------
  free  energy   TOTEN  =      -645.89286789 eV

  energy  without entropy=     -645.89286789  energy(sigma->0) =     -645.89286789
 


--------------------------------------------------------------------------------------------------------


    POTLOK:  cpu time    0.0885: real time    0.1000


--------------------------------------------------------------------------------------------------------


     LOOP+:  cpu time 1442.9236: real time 1457.2961
    4ORBIT:  cpu time    0.0000: real time    0.0000

 total amount of memory used by VASP MPI-rank0   110801. kBytes
=======================================================================

   base      :      30000. kBytes
   nonlr-proj:       6559. kBytes
   fftplans  :       3666. kBytes
   grid      :      10648. kBytes
   one-center:        983. kBytes
   wavefun   :      58945. kBytes
 
  
  
 General timing and accounting informations for this job:
 ========================================================
  
                  Total CPU time used (sec):     1458.799
                            User time (sec):     1455.150
                          System time (sec):        3.648
                         Elapsed time (sec):     1474.106
  
                   Maximum memory used (kb):      396368.
                   Average memory used (kb):           0.
  
                          Minor page faults:       250765
                          Major page faults:           14
                 Voluntary context switches:         2452
